 vasp.5.3.6 23Jan15 (build Feb 02 2016 19:35:31) gamma-only                     
  
 executed on           IFC91_ompi date 2016.02.07  22:58:40
 running on   16 total cores
 distrk:  each k-point on   16 cores,    1 groups
 distr:  one band on NCORES_PER_BAND=   1 cores,   16 groups


--------------------------------------------------------------------------------------------------------


 INCAR:
 POTCAR:    PAW_PBE C_GW_new 19Mar2012            

 ----------------------------------------------------------------------------- 
|                                                                             |
|           W    W    AA    RRRRR   N    N  II  N    N   GGGG   !!!           |
|           W    W   A  A   R    R  NN   N  II  NN   N  G    G  !!!           |
|           W    W  A    A  R    R  N N  N  II  N N  N  G       !!!           |
|           W WW W  AAAAAA  RRRRR   N  N N  II  N  N N  G  GGG   !            |
|           WW  WW  A    A  R   R   N   NN  II  N   NN  G    G                |
|           W    W  A    A  R    R  N    N  II  N    N   GGGG   !!!           |
|                                                                             |
|      For optimal performance we recommend to set                            |
|        NCORE= 4 - approx SQRT( number of cores)                             |
|      NCORE specifies how many cores store one orbital (NPAR=cpu/NCORE).     |
|      This setting can  greatly improve the performance of VASP for DFT.     |
|      The default, NPAR=number of cores might be grossly inefficient         |
|      on modern multi-core architectures or massively parallel machines.     |
|      Do your own testing !!!!                                               |
|      Unfortunately you need to use the default for GW and RPA calculations. |
|      (for HF NCORE is supported but not extensively tested yet)             |
|                                                                             |
 ----------------------------------------------------------------------------- 

 POTCAR:    PAW_PBE C_GW_new 19Mar2012            
   VRHFIN =C: s2p2                                                              
   LEXCH  = PE                                                                  
   EATOM  =   147.1560 eV,   10.8157 Ry                                         
                                                                                
   TITEL  = PAW_PBE C_GW_new 19Mar2012                                          
   LULTRA =        F    use ultrasoft PP ?                                      
   IUNSCR =        1    unscreen: 0-lin 1-nonlin 2-no                           
   RPACOR =    0.800    partial core radius                                     
   POMASS =   12.011; ZVAL   =    4.000    mass and valenz                      
   RCORE  =    1.600    outmost cutoff radius                                   
   RWIGS  =    1.600; RWIGS  =    0.847    wigner-seitz radius (au A)           
   ENMAX  =  413.992; ENMIN  =  310.494 eV                                      
   ICORE  =        3    local potential                                         
   LCOR   =        T    correct aug charges                                     
   LPAW   =        T    paw PP                                                  
   EAUG   = 1213.930                                                            
   DEXC   =    0.000                                                            
   RMAX   =    1.630    core radius for proj-oper                               
   RAUG   =    1.300    factor for augmentation sphere                          
   RDEP   =    1.601    radius for radial grids                                 
   RDEPT  =    1.200    core radius for aug-charge                              
                                                                                
   Atomic configuration                                                         
    5 entries                                                                   
     n  l   j            E        occ.                                          
     1  0  0.50      -273.3789   2.0000                                         
     2  0  0.50       -13.7508   2.0000                                         
     2  1  0.50        -5.2854   2.0000                                         
     3  2  1.50        -5.4423   0.0000                                         
     4  3  2.50        -5.4423   0.0000                                         
   Description                                                                  
     l       E           TYP  RCUT    TYP  RCUT                                 
     0    -13.7508457     23  1.200                                             
     0     -7.5219285     23  1.200                                             
     0    272.1165200     23  1.300                                             
     1     -5.2854382     23  1.500                                             
     1    108.8466080     23  1.500                                             
     2     27.2116520     23  1.500                                             
     2    190.4815640     23  1.600                                             
     3     54.4233040     23  1.400                                             
  local pseudopotential read in
  partial core-charges read in
  partial kinetic energy density read in
  kinetic energy density of atom read in
  atomic valenz-charges read in
  non local Contribution for L=           0  read in
    real space projection operators read in
  non local Contribution for L=           0  read in
    real space projection operators read in
  non local Contribution for L=           0  read in
    real space projection operators read in
  non local Contribution for L=           1  read in
    real space projection operators read in
  non local Contribution for L=           1  read in
    real space projection operators read in
  non local Contribution for L=           2  read in
    real space projection operators read in
  non local Contribution for L=           2  read in
    real space projection operators read in
    PAW grid and wavefunctions read in
 
   number of l-projection  operators is LMAX  =           7
   number of lm-projection operators is LMMAX =          19
 

 ----------------------------------------------------------------------------- 
|                                                                             |
|  ADVICE TO THIS USER RUNNING 'VASP/VAMP'   (HEAR YOUR MASTER'S VOICE ...):  |
|                                                                             |
|      You have a (more or less) 'large supercell' and for larger cells       |
|      it might be more efficient to use real space projection opertators     |
|      So try LREAL= Auto  in the INCAR   file.                               |
|      Mind: At the moment your POTCAR file does not contain real space       |
|       projectors, and has to be modified,  BUT if you                       |
|      want to do an extremely  accurate calculation you might also keep the  |
|      reciprocal projection scheme          (i.e. LREAL=.FALSE.)             |
|                                                                             |
 ----------------------------------------------------------------------------- 

  PAW_PBE C_GW_new 19Mar2012            :
 energy of atom  1       EATOM= -147.1560
 kinetic energy error for atom=    0.0288 (will be added to EATOM!!)
 
 
 POSCAR: C                                       
  positions in cartesian coordinates
  No initial velocities read in
 exchange correlation table for  LEXCH =        8
   RHO(1)=    0.500       N(1)  =     2000
   RHO(2)=  100.500       N(2)  =     4000
 


--------------------------------------------------------------------------------------------------------


 ion  position               nearest neighbor table
   1  0.000  0.000  0.000-   2 1.54  20 1.54  38 1.54  74 1.54
   2  0.062  0.062  0.062-   1 1.54   3 1.54   5 1.54   9 1.54
   3  0.000  0.000  0.250-   2 1.54   4 1.54  40 1.54  76 1.54
   4  0.062  0.062  0.312-   3 1.54   7 1.54  11 1.54  17 1.54
   5  0.000  0.250  0.000-   2 1.54   6 1.54  24 1.54  78 1.54
   6  0.062  0.312  0.062-   5 1.54   7 1.54  13 1.54  33 1.54
   7  0.000  0.250  0.250-   4 1.54   6 1.54   8 1.54  80 1.54
   8  0.062  0.312  0.312-   7 1.54  15 1.54  21 1.54  35 1.54
   9  0.250  0.000  0.000-   2 1.54  10 1.54  28 1.54  46 1.54
  10  0.312  0.062  0.062-   9 1.54  11 1.54  13 1.54  65 1.54
  11  0.250  0.000  0.250-   4 1.54  10 1.54  12 1.54  48 1.54
  12  0.312  0.062  0.312-  11 1.54  15 1.54  25 1.54  67 1.54
  13  0.250  0.250  0.000-   6 1.54  10 1.54  14 1.54  32 1.54
  14  0.312  0.312  0.062-  13 1.54  15 1.54  41 1.54  69 1.54
  15  0.250  0.250  0.250-   8 1.54  12 1.54  14 1.54  16 1.54
  16  0.312  0.312  0.312-  15 1.54  29 1.54  43 1.54  71 1.54
  17  0.000  0.000  0.500-   4 1.54  18 1.54  54 1.54  90 1.54
  18  0.062  0.062  0.562-  17 1.54  19 1.54  21 1.54  25 1.54
  19  0.000  0.000  0.750-  18 1.54  20 1.54  56 1.54  92 1.54
  20  0.062  0.062  0.812-   1 1.54  19 1.54  23 1.54  27 1.54
  21  0.000  0.250  0.500-   8 1.54  18 1.54  22 1.54  94 1.54
  22  0.062  0.312  0.562-  21 1.54  23 1.54  29 1.54  49 1.54
  23  0.000  0.250  0.750-  20 1.54  22 1.54  24 1.54  96 1.54
  24  0.062  0.312  0.812-   5 1.54  23 1.54  31 1.54  51 1.54
  25  0.250  0.000  0.500-  12 1.54  18 1.54  26 1.54  62 1.54
  26  0.312  0.062  0.562-  25 1.54  27 1.54  29 1.54  81 1.54
  27  0.250  0.000  0.750-  20 1.54  26 1.54  28 1.54  64 1.54
  28  0.312  0.062  0.812-   9 1.54  27 1.54  31 1.54  83 1.54
  29  0.250  0.250  0.500-  16 1.54  22 1.54  26 1.54  30 1.54
  30  0.312  0.312  0.562-  29 1.54  31 1.54  57 1.54  85 1.54
  31  0.250  0.250  0.750-  24 1.54  28 1.54  30 1.54  32 1.54
  32  0.312  0.312  0.812-  13 1.54  31 1.54  59 1.54  87 1.54
  33  0.000  0.500  0.000-   6 1.54  34 1.54  52 1.54 106 1.54
  34  0.062  0.562  0.062-  33 1.54  35 1.54  37 1.54  41 1.54
  35  0.000  0.500  0.250-   8 1.54  34 1.54  36 1.54 108 1.54
  36  0.062  0.562  0.312-  35 1.54  39 1.54  43 1.54  49 1.54
  37  0.000  0.750  0.000-  34 1.54  38 1.54  56 1.54 110 1.54
  38  0.062  0.812  0.062-   1 1.54  37 1.54  39 1.54  45 1.54
  39  0.000  0.750  0.250-  36 1.54  38 1.54  40 1.54 112 1.54
  40  0.062  0.812  0.312-   3 1.54  39 1.54  47 1.54  53 1.54
  41  0.250  0.500  0.000-  14 1.54  34 1.54  42 1.54  60 1.54
  42  0.312  0.562  0.062-  41 1.54  43 1.54  45 1.54  97 1.54
  43  0.250  0.500  0.250-  16 1.54  36 1.54  42 1.54  44 1.54
  44  0.312  0.562  0.312-  43 1.54  47 1.54  57 1.54  99 1.54
  45  0.250  0.750  0.000-  38 1.54  42 1.54  46 1.54  64 1.54
  46  0.312  0.812  0.062-   9 1.54  45 1.54  47 1.54 101 1.54
  47  0.250  0.750  0.250-  40 1.54  44 1.54  46 1.54  48 1.54
  48  0.312  0.812  0.312-  11 1.54  47 1.54  61 1.54 103 1.54
  49  0.000  0.500  0.500-  22 1.54  36 1.54  50 1.54 122 1.54
  50  0.062  0.562  0.562-  49 1.54  51 1.54  53 1.54  57 1.54
  51  0.000  0.500  0.750-  24 1.54  50 1.54  52 1.54 124 1.54
  52  0.062  0.562  0.812-  33 1.54  51 1.54  55 1.54  59 1.54
  53  0.000  0.750  0.500-  40 1.54  50 1.54  54 1.54 126 1.54
  54  0.062  0.812  0.562-  17 1.54  53 1.54  55 1.54  61 1.54
  55  0.000  0.750  0.750-  52 1.54  54 1.54  56 1.54 128 1.54
  56  0.062  0.812  0.812-  19 1.54  37 1.54  55 1.54  63 1.54
  57  0.250  0.500  0.500-  30 1.54  44 1.54  50 1.54  58 1.54
  58  0.312  0.562  0.562-  57 1.54  59 1.54  61 1.54 113 1.54
  59  0.250  0.500  0.750-  32 1.54  52 1.54  58 1.54  60 1.54
  60  0.312  0.562  0.812-  41 1.54  59 1.54  63 1.54 115 1.54
  61  0.250  0.750  0.500-  48 1.54  54 1.54  58 1.54  62 1.54
  62  0.312  0.812  0.562-  25 1.54  61 1.54  63 1.54 117 1.54
  63  0.250  0.750  0.750-  56 1.54  60 1.54  62 1.54  64 1.54
  64  0.312  0.812  0.812-  27 1.54  45 1.54  63 1.54 119 1.54
  65  0.500  0.000  0.000-  10 1.54  66 1.54  84 1.54 102 1.54
  66  0.562  0.062  0.062-  65 1.54  67 1.54  69 1.54  73 1.54
  67  0.500  0.000  0.250-  12 1.54  66 1.54  68 1.54 104 1.54
  68  0.562  0.062  0.312-  67 1.54  71 1.54  75 1.54  81 1.54
  69  0.500  0.250  0.000-  14 1.54  66 1.54  70 1.54  88 1.54
  70  0.562  0.312  0.062-  69 1.54  71 1.54  77 1.54  97 1.54
  71  0.500  0.250  0.250-  16 1.54  68 1.54  70 1.54  72 1.54
  72  0.562  0.312  0.312-  71 1.54  79 1.54  85 1.54  99 1.54
  73  0.750  0.000  0.000-  66 1.54  74 1.54  92 1.54 110 1.54
  74  0.812  0.062  0.062-   1 1.54  73 1.54  75 1.54  77 1.54
  75  0.750  0.000  0.250-  68 1.54  74 1.54  76 1.54 112 1.54
  76  0.812  0.062  0.312-   3 1.54  75 1.54  79 1.54  89 1.54
  77  0.750  0.250  0.000-  70 1.54  74 1.54  78 1.54  96 1.54
  78  0.812  0.312  0.062-   5 1.54  77 1.54  79 1.54 105 1.54
  79  0.750  0.250  0.250-  72 1.54  76 1.54  78 1.54  80 1.54
  80  0.812  0.312  0.312-   7 1.54  79 1.54  93 1.54 107 1.54
  81  0.500  0.000  0.500-  26 1.54  68 1.54  82 1.54 118 1.54
  82  0.562  0.062  0.562-  81 1.54  83 1.54  85 1.54  89 1.54
  83  0.500  0.000  0.750-  28 1.54  82 1.54  84 1.54 120 1.54
  84  0.562  0.062  0.812-  65 1.54  83 1.54  87 1.54  91 1.54
  85  0.500  0.250  0.500-  30 1.54  72 1.54  82 1.54  86 1.54
  86  0.562  0.312  0.562-  85 1.54  87 1.54  93 1.54 113 1.54
  87  0.500  0.250  0.750-  32 1.54  84 1.54  86 1.54  88 1.54
  88  0.562  0.312  0.812-  69 1.54  87 1.54  95 1.54 115 1.54
  89  0.750  0.000  0.500-  76 1.54  82 1.54  90 1.54 126 1.54
  90  0.812  0.062  0.562-  17 1.54  89 1.54  91 1.54  93 1.54
  91  0.750  0.000  0.750-  84 1.54  90 1.54  92 1.54 128 1.54
  92  0.812  0.062  0.812-  19 1.54  73 1.54  91 1.54  95 1.54
  93  0.750  0.250  0.500-  80 1.54  86 1.54  90 1.54  94 1.54
  94  0.812  0.312  0.562-  21 1.54  93 1.54  95 1.54 121 1.54
  95  0.750  0.250  0.750-  88 1.54  92 1.54  94 1.54  96 1.54
  96  0.812  0.312  0.812-  23 1.54  77 1.54  95 1.54 123 1.54
  97  0.500  0.500  0.000-  42 1.54  70 1.54  98 1.54 116 1.54
  98  0.562  0.562  0.062-  97 1.54  99 1.54 101 1.54 105 1.54
  99  0.500  0.500  0.250-  44 1.54  72 1.54  98 1.54 100 1.54
 100  0.562  0.562  0.312-  99 1.54 103 1.54 107 1.54 113 1.54
 101  0.500  0.750  0.000-  46 1.54  98 1.54 102 1.54 120 1.54
 102  0.562  0.812  0.062-  65 1.54 101 1.54 103 1.54 109 1.54
 103  0.500  0.750  0.250-  48 1.54 100 1.54 102 1.54 104 1.54
 104  0.562  0.812  0.312-  67 1.54 103 1.54 111 1.54 117 1.54
 105  0.750  0.500  0.000-  78 1.54  98 1.54 106 1.54 124 1.54
 106  0.812  0.562  0.062-  33 1.54 105 1.54 107 1.54 109 1.54
 107  0.750  0.500  0.250-  80 1.54 100 1.54 106 1.54 108 1.54
 108  0.812  0.562  0.312-  35 1.54 107 1.54 111 1.54 121 1.54
 109  0.750  0.750  0.000- 102 1.54 106 1.54 110 1.54 128 1.54
 110  0.812  0.812  0.062-  37 1.54  73 1.54 109 1.54 111 1.54
 111  0.750  0.750  0.250- 104 1.54 108 1.54 110 1.54 112 1.54
 112  0.812  0.812  0.312-  39 1.54  75 1.54 111 1.54 125 1.54
 113  0.500  0.500  0.500-  58 1.54  86 1.54 100 1.54 114 1.54
 114  0.562  0.562  0.562- 113 1.54 115 1.54 117 1.54 121 1.54
 115  0.500  0.500  0.750-  60 1.54  88 1.54 114 1.54 116 1.54
 116  0.562  0.562  0.812-  97 1.54 115 1.54 119 1.54 123 1.54
 117  0.500  0.750  0.500-  62 1.54 104 1.54 114 1.54 118 1.54
 118  0.562  0.812  0.562-  81 1.54 117 1.54 119 1.54 125 1.54
 119  0.500  0.750  0.750-  64 1.54 116 1.54 118 1.54 120 1.54
 120  0.562  0.812  0.812-  83 1.54 101 1.54 119 1.54 127 1.54
 121  0.750  0.500  0.500-  94 1.54 108 1.54 114 1.54 122 1.54
 122  0.812  0.562  0.562-  49 1.54 121 1.54 123 1.54 125 1.54
 123  0.750  0.500  0.750-  96 1.54 116 1.54 122 1.54 124 1.54
 124  0.812  0.562  0.812-  51 1.54 105 1.54 123 1.54 127 1.54
 125  0.750  0.750  0.500- 112 1.54 118 1.54 122 1.54 126 1.54
 126  0.812  0.812  0.562-  53 1.54  89 1.54 125 1.54 127 1.54
 127  0.750  0.750  0.750- 120 1.54 124 1.54 126 1.54 128 1.54
 128  0.812  0.812  0.812-  55 1.54  91 1.54 109 1.54 127 1.54
 
  LATTYP: Found a face centered cubic cell.
 ALAT       =    14.2684036126
  
  Lattice vectors:
  
 A1 = (   7.1342018063,   7.1342018063,   0.0000000000)
 A2 = (   0.0000000000,   7.1342018063,   7.1342018063)
 A3 = (   7.1342018063,   0.0000000000,   7.1342018063)


Analysis of symmetry for initial positions (statically):
=====================================================================
 Subroutine PRICEL returns following result:
 
  LATTYP: Found a face centered cubic cell.
 ALAT       =     3.5671009032
  
  Lattice vectors:
  
 A1 = (   1.7835504516,   1.7835504516,   0.0000000000)
 A2 = (   0.0000000000,   1.7835504516,   1.7835504516)
 A3 = (   1.7835504516,   0.0000000000,   1.7835504516)
 
  64 primitive cells build up your supercell.
 

 Routine SETGRP: Setting up the symmetry group for a 
 face centered cubic supercell.


 Subroutine GETGRP returns: Found 48 space group operations
 (whereof 24 operations were pure point group operations)
 out of a pool of 48 trial point group operations.


The static configuration has the point symmetry T_d .
 The point group associated with its full space group is O_h .


Analysis of symmetry for dynamics (positions and initial velocities):
=====================================================================
 Subroutine PRICEL returns following result:
 
  LATTYP: Found a face centered cubic cell.
 ALAT       =     3.5671009032
  
  Lattice vectors:
  
 A1 = (   1.7835504516,   1.7835504516,   0.0000000000)
 A2 = (   0.0000000000,   1.7835504516,   1.7835504516)
 A3 = (   1.7835504516,   0.0000000000,   1.7835504516)
 
  64 primitive cells build up your supercell.
 

 Routine SETGRP: Setting up the symmetry group for a 
 face centered cubic supercell.


 Subroutine GETGRP returns: Found 48 space group operations
 (whereof 24 operations were pure point group operations)
 out of a pool of 48 trial point group operations.


The dynamic configuration has the point symmetry T_d .
 The point group associated with its full space group is O_h .


Analysis of magnetic symmetry:
=====================================================================
 Subroutine PRICEL returns following result:
 
  LATTYP: Found a face centered cubic cell.
 ALAT       =     3.5671009032
  
  Lattice vectors:
  
 A1 = (   1.7835504516,   1.7835504516,   0.0000000000)
 A2 = (   0.0000000000,   1.7835504516,   1.7835504516)
 A3 = (   1.7835504516,   0.0000000000,   1.7835504516)
 
  64 primitive cells build up your supercell.
 

 Subroutine MAGSYM returns: Found 48 space group operations
 (whereof 24 operations were pure point group operations)
 out of a pool of 48 trial space group operations
 (whereof 24 operations were pure point group operations)
 and found also    64 'primitive' translations


The magnetic configuration has the point symmetry T_d .
 The point group associated with its full space group is O_h .
 
 
 KPOINTS: Automatically generated mesh            

Automatic generation of k-mesh.
Space group operators:
 irot       det(A)        alpha          n_x          n_y          n_z        tau_x        tau_y        tau_z
    1     1.000000     0.000000     1.000000     0.000000     0.000000     0.000000     0.000000     0.000000
    2     1.000000   120.000000    -0.577350    -0.577350    -0.577350     0.000000     0.000000     0.000000
    3     1.000000   120.000000     0.577350     0.577350     0.577350     0.000000     0.000000     0.000000
    4    -1.000000    90.000000     0.000000    -1.000000     0.000000     0.000000     0.000000     0.000000
    5    -1.000000   180.000000     0.707107     0.707107     0.000000     0.000000     0.000000     0.000000
    6    -1.000000    90.000000     1.000000     0.000000     0.000000     0.000000     0.000000     0.000000
    7     1.000000   180.000000     0.000000     1.000000     0.000000     0.000000     0.000000     0.000000
    8     1.000000   120.000000     0.577350     0.577350    -0.577350     0.000000     0.000000     0.000000
    9     1.000000   120.000000     0.577350    -0.577350    -0.577350     0.000000     0.000000     0.000000
   10    -1.000000    90.000000     0.000000     1.000000     0.000000     0.000000     0.000000     0.000000
   11    -1.000000    90.000000     0.000000     0.000000    -1.000000     0.000000     0.000000     0.000000
   12    -1.000000   180.000000     0.000000     0.707107     0.707107     0.000000     0.000000     0.000000
   13     1.000000   120.000000    -0.577350     0.577350     0.577350     0.000000     0.000000     0.000000
   14     1.000000   120.000000    -0.577350     0.577350    -0.577350     0.000000     0.000000     0.000000
   15     1.000000   180.000000     0.000000     0.000000     1.000000     0.000000     0.000000     0.000000
   16    -1.000000    90.000000    -1.000000     0.000000     0.000000     0.000000     0.000000     0.000000
   17    -1.000000   180.000000     0.707107     0.000000     0.707107     0.000000     0.000000     0.000000
   18    -1.000000    90.000000     0.000000     0.000000     1.000000     0.000000     0.000000     0.000000
   19     1.000000   120.000000    -0.577350    -0.577350     0.577350     0.000000     0.000000     0.000000
   20     1.000000   180.000000     1.000000     0.000000     0.000000     0.000000     0.000000     0.000000
   21     1.000000   120.000000     0.577350    -0.577350     0.577350     0.000000     0.000000     0.000000
   22    -1.000000   180.000000     0.707107    -0.707107     0.000000     0.000000     0.000000     0.000000
   23    -1.000000   180.000000     0.707107     0.000000    -0.707107     0.000000     0.000000     0.000000
   24    -1.000000   180.000000     0.000000    -0.707107     0.707107     0.000000     0.000000     0.000000
   25    -1.000000     0.000000     1.000000     0.000000     0.000000     0.062500     0.062500     0.062500
   26    -1.000000   120.000000    -0.577350    -0.577350    -0.577350     0.062500     0.062500     0.062500
   27    -1.000000   120.000000     0.577350     0.577350     0.577350     0.062500     0.062500     0.062500
   28     1.000000    90.000000     0.000000    -1.000000     0.000000     0.062500     0.062500     0.062500
   29     1.000000   180.000000     0.707107     0.707107     0.000000     0.062500     0.062500     0.062500
   30     1.000000    90.000000     1.000000     0.000000     0.000000     0.062500     0.062500     0.062500
   31    -1.000000   180.000000     0.000000     1.000000     0.000000     0.062500     0.062500     0.062500
   32    -1.000000   120.000000     0.577350     0.577350    -0.577350     0.062500     0.062500     0.062500
   33    -1.000000   120.000000     0.577350    -0.577350    -0.577350     0.062500     0.062500     0.062500
   34     1.000000    90.000000     0.000000     1.000000     0.000000     0.062500     0.062500     0.062500
   35     1.000000    90.000000     0.000000     0.000000    -1.000000     0.062500     0.062500     0.062500
   36     1.000000   180.000000     0.000000     0.707107     0.707107     0.062500     0.062500     0.062500
   37    -1.000000   120.000000    -0.577350     0.577350     0.577350     0.062500     0.062500     0.062500
   38    -1.000000   120.000000    -0.577350     0.577350    -0.577350     0.062500     0.062500     0.062500
   39    -1.000000   180.000000     0.000000     0.000000     1.000000     0.062500     0.062500     0.062500
   40     1.000000    90.000000    -1.000000     0.000000     0.000000     0.062500     0.062500     0.062500
   41     1.000000   180.000000     0.707107     0.000000     0.707107     0.062500     0.062500     0.062500
   42     1.000000    90.000000     0.000000     0.000000     1.000000     0.062500     0.062500     0.062500
   43    -1.000000   120.000000    -0.577350    -0.577350     0.577350     0.062500     0.062500     0.062500
   44    -1.000000   180.000000     1.000000     0.000000     0.000000     0.062500     0.062500     0.062500
   45    -1.000000   120.000000     0.577350    -0.577350     0.577350     0.062500     0.062500     0.062500
   46     1.000000   180.000000     0.707107    -0.707107     0.000000     0.062500     0.062500     0.062500
   47     1.000000   180.000000     0.707107     0.000000    -0.707107     0.062500     0.062500     0.062500
   48     1.000000   180.000000     0.000000    -0.707107     0.707107     0.062500     0.062500     0.062500
 
 Subroutine IBZKPT returns following result:
 ===========================================
 
 Found      1 irreducible k-points:
 
 Following reciprocal coordinates:
            Coordinates               Weight
  0.000000  0.000000  0.000000      1.000000
 
 Following cartesian coordinates:
            Coordinates               Weight
  0.000000  0.000000  0.000000      1.000000
 

 ----------------------------------------------------------------------------- 
|                                                                             |
|           W    W    AA    RRRRR   N    N  II  N    N   GGGG   !!!           |
|           W    W   A  A   R    R  NN   N  II  NN   N  G    G  !!!           |
|           W    W  A    A  R    R  N N  N  II  N N  N  G       !!!           |
|           W WW W  AAAAAA  RRRRR   N  N N  II  N  N N  G  GGG   !            |
|           WW  WW  A    A  R   R   N   NN  II  N   NN  G    G                |
|           W    W  A    A  R    R  N    N  II  N    N   GGGG   !!!           |
|                                                                             |
|      The number of bands has been changed from the values supplied          |
|      in the INCAR file. This is a result of running the parallel version.   |
|      The orbitals not found in the WAVECAR file will be initialized with    |
|      random numbers, which is usually adequate. For correlated              |
|      calculations, however, you should redo the groundstate calculation.    |
|      I found NBANDS    =      289  now  NBANDS  =     304                   |
|                                                                             |
 ----------------------------------------------------------------------------- 



--------------------------------------------------------------------------------------------------------




 Dimension of arrays:
   k-points           NKPTS =      1   k-points in BZ     NKDIM =      1   number of bands    NBANDS=    304
   number of dos      NEDOS =    301   number of ions     NIONS =    128
   non local maximal  LDIM  =      7   non local SUM 2l+1 LMDIM =     19
   total plane-waves  NPLWV = 125000
   max r-space proj   IRMAX =      1   max aug-charges    IRDMAX=   1876
   dimension x,y,z NGX =    50 NGY =   50 NGZ =   50
   dimension x,y,z NGXF=   100 NGYF=  100 NGZF=  100
   support grid    NGXF=   100 NGYF=  100 NGZF=  100
   ions per type =             128
 NGX,Y,Z   is equivalent  to a cutoff of   8.24,  8.24,  8.24 a.u.
 NGXF,Y,Z  is equivalent  to a cutoff of  16.48, 16.48, 16.48 a.u.


 I would recommend the setting:
   dimension x,y,z NGX =    49 NGY =   49 NGZ =   49
 SYSTEM =  unknown system                          
 POSCAR =  C                                       

 Startparameter for this run:
   NWRITE =      2    write-flag & timer
   PREC   = normal    normal or accurate (medium, high low for compatibility)
   ISTART =      0    job   : 0-new  1-cont  2-samecut
   ICHARG =      2    charge: 1-file 2-atom 10-const
   ISPIN  =      2    spin polarized calculation?
   LNONCOLLINEAR =      F non collinear calculations
   LSORBIT =      F    spin-orbit coupling
   INIWAV =      1    electr: 0-lowe 1-rand  2-diag
   LASPH  =      F    aspherical Exc in radial PAW
   METAGGA=      F    non-selfconsistent MetaGGA calc.

 Electronic Relaxation 1
   ENCUT  =  400.0 eV  29.40 Ry    5.42 a.u.  16.45 16.45 16.45*2*pi/ulx,y,z
   ENINI  =  400.0     initial cutoff
   ENAUG  = 1213.9 eV  augmentation charge cutoff
   NELM   =     60;   NELMIN=  2; NELMDL= -5     # of ELM steps 
   EDIFF  = 0.1E-03   stopping-criterion for ELM
   LREAL  =      F    real-space projection
   NLSPLINE    = F    spline interpolate recip. space projectors
   LCOMPAT=      F    compatible to vasp.4.4
   GGA_COMPAT  = T    GGA compatible to vasp.4.4-vasp.4.6
   LMAXPAW     = -100 max onsite density
   LMAXMIX     =    2 max onsite mixed and CHGCAR
   VOSKOWN=      0    Vosko Wilk Nusair interpolation
   ROPT   =    0.00000
 Ionic relaxation
   EDIFFG = 0.1E-02   stopping-criterion for IOM
   NSW    =    100    number of steps for IOM
   NBLOCK =      1;   KBLOCK =    100    inner block; outer block 
   IBRION =      2    ionic relax: 0-MD 1-quasi-New 2-CG
   NFREE  =      1    steps in history (QN), initial steepest desc. (CG)
   ISIF   =      0    stress and relaxation
   IWAVPR =     11    prediction:  0-non 1-charg 2-wave 3-comb
   ISYM   =      2    0-nonsym 1-usesym 2-fastsym
   LCORR  =      T    Harris-Foulkes like correction to forces

   POTIM  = 0.5000    time-step for ionic-motion
   TEIN   =    0.0    initial temperature
   TEBEG  =    0.0;   TEEND  =   0.0 temperature during run
   SMASS  =  -3.00    Nose mass-parameter (am)
   estimated Nose-frequenzy (Omega)   =  0.10E-29 period in steps =****** mass=  -0.233E-26a.u.
   SCALEE = 1.0000    scale energy and forces
   NPACO  =    256;   APACO  = 16.0  distance and # of slots for P.C.
   PSTRESS=    0.0 pullay stress

  Mass of Ions in am
   POMASS =  12.01
  Ionic Valenz
   ZVAL   =   4.00
  Atomic Wigner-Seitz radii
   RWIGS  =  -1.00
  virtual crystal weights 
   VCA    =   1.00
   NELECT =     512.0000    total number of electrons
   NUPDOWN=      -1.0000    fix difference up-down

 DOS related values:
   EMIN   =  10.00;   EMAX   =-10.00  energy-range for DOS
   EFERMI =   0.00
   ISMEAR =     1;   SIGMA  =   0.20  broadening in eV -4-tet -1-fermi 0-gaus

 Electronic relaxation 2 (details)
   IALGO  =     38    algorithm
   LDIAG  =      T    sub-space diagonalisation (order eigenvalues)
   LSUBROT=      F    optimize rotation matrix (better conditioning)
   TURBO    =      0    0=normal 1=particle mesh
   IRESTART =      0    0=no restart 2=restart with 2 vectors
   NREBOOT  =      0    no. of reboots
   NMIN     =      0    reboot dimension
   EREF     =   0.00    reference energy to select bands
   IMIX   =      4    mixing-type and parameters
     AMIX     =   0.40;   BMIX     =  1.00
     AMIX_MAG =   1.60;   BMIX_MAG =  1.00
     AMIN     =   0.10
     WC   =   100.;   INIMIX=   1;  MIXPRE=   1;  MAXMIX= -45

 Intra band minimization:
   WEIMIN = 0.0010     energy-eigenvalue tresh-hold
   EBREAK =  0.82E-07  absolut break condition
   DEPER  =   0.30     relativ break condition  

   TIME   =   0.40     timestep for ELM

  volume/ion in A,a.u.               =       5.67        38.29
  Fermi-wavevector in a.u.,A,eV,Ry     =   1.457056  2.753436 28.885315  2.123011
  Thomas-Fermi vector in A             =   2.573902
 
 Write flags
   LWAVE  =      T    write WAVECAR
   LCHARG =      T    write CHGCAR
   LVTOT  =      F    write LOCPOT, total local potential
   LVHAR  =      F    write LOCPOT, Hartree potential only
   LELF   =      F    write electronic localiz. function (ELF)
   LORBIT =      0    0 simple, 1 ext, 2 COOP (PROOUT)


 Dipole corrections
   LMONO  =      F    monopole corrections only (constant potential shift)
   LDIPOL =      F    correct potential (dipole corrections)
   IDIPOL =      0    1-x, 2-y, 3-z, 4-all directions 
   EPSILON=  1.0000000 bulk dielectric constant

 Exchange correlation treatment:
   GGA     =    --    GGA type
   LEXCH   =     8    internal setting for exchange type
   VOSKOWN=      0    Vosko Wilk Nusair interpolation
   LHFCALC =     F    Hartree Fock is set to
   LHFONE  =     F    Hartree Fock one center treatment
   AEXX    =    0.0000 exact exchange contribution

 Linear response parameters
   LEPSILON=     F    determine dielectric tensor
   LRPA    =     F    only Hartree local field effects (RPA)
   LNABLA  =     F    use nabla operator in PAW spheres
   LVEL    =     F    velocity operator in full k-point grid
   LINTERFAST=   F  fast interpolation
   KINTER  =     0    interpolate to denser k-point grid
   CSHIFT  =0.1000    complex shift for real part using Kramers Kronig
   OMEGAMAX=  -1.0    maximum frequency
   DEG_THRESHOLD= 0.2000000E-02 threshold for treating states as degnerate
   RTIME   =    0.100 relaxation time in fs

 Orbital magnetization related:
   ORBITALMAG=     F  switch on orbital magnetization
   LCHIMAG   =     F  perturbation theory with respect to B field
   DQ        =  0.001000  dq finite difference perturbation B field



--------------------------------------------------------------------------------------------------------


 conjugate gradient relaxation of ions
 charge density and potential will be updated during run
 spin polarized calculation
 Variant of blocked Davidson
 Davidson routine will perform the subspace rotation
 perform sub-space diagonalisation
    after iterative eigenvector-optimisation
 modified Broyden-mixing scheme, WC =      100.0
 initial mixing is a Kerker type mixing with AMIX =  0.4000 and BMIX =      1.0000
 Hartree-type preconditioning will be used
 using additional bands           48
 reciprocal scheme for non local part
 use partial core corrections
 calculate Harris-corrections to forces 
   (improved forces if not selfconsistent)
 use gradient corrections 
 use of overlap-Matrix (Vanderbilt PP)
 Methfessel and Paxton  Order N= 1 SIGMA  =   0.20


--------------------------------------------------------------------------------------------------------


  energy-cutoff  :      400.00
  volume of cell :      726.22
      direct lattice vectors                 reciprocal lattice vectors
     7.134201806  7.134201806  0.000000000     0.070084925  0.070084925 -0.070084925
     0.000000000  7.134201806  7.134201806    -0.070084925  0.070084925  0.070084925
     7.134201806  0.000000000  7.134201806     0.070084925 -0.070084925  0.070084925

  length of vectors
    10.089284951 10.089284951 10.089284951     0.121390651  0.121390651  0.121390651


 
 k-points in units of 2pi/SCALE and weight: Automatically generated mesh            
   0.00000000  0.00000000  0.00000000       1.000
 
 k-points in reciprocal lattice and weights: Automatically generated mesh            
   0.00000000  0.00000000  0.00000000       1.000
 
 position of ions in fractional coordinates (direct lattice) 
   0.00000000  0.00000000  0.00000000
   0.06250000  0.06250000  0.06250000
   0.00000000  0.00000000  0.25000000
   0.06250000  0.06250000  0.31250000
   0.00000000  0.25000000  0.00000000
   0.06250000  0.31250000  0.06250000
   0.00000000  0.25000000  0.25000000
   0.06250000  0.31250000  0.31250000
   0.25000000  0.00000000  0.00000000
   0.31250000  0.06250000  0.06250000
   0.25000000  0.00000000  0.25000000
   0.31250000  0.06250000  0.31250000
   0.25000000  0.25000000  0.00000000
   0.31250000  0.31250000  0.06250000
   0.25000000  0.25000000  0.25000000
   0.31250000  0.31250000  0.31250000
   0.00000000  0.00000000  0.50000000
   0.06250000  0.06250000  0.56250000
   0.00000000  0.00000000  0.75000000
   0.06250000  0.06250000  0.81250000
   0.00000000  0.25000000  0.50000000
   0.06250000  0.31250000  0.56250000
   0.00000000  0.25000000  0.75000000
   0.06250000  0.31250000  0.81250000
   0.25000000  0.00000000  0.50000000
   0.31250000  0.06250000  0.56250000
   0.25000000  0.00000000  0.75000000
   0.31250000  0.06250000  0.81250000
   0.25000000  0.25000000  0.50000000
   0.31250000  0.31250000  0.56250000
   0.25000000  0.25000000  0.75000000
   0.31250000  0.31250000  0.81250000
   0.00000000  0.50000000  0.00000000
   0.06250000  0.56250000  0.06250000
   0.00000000  0.50000000  0.25000000
   0.06250000  0.56250000  0.31250000
   0.00000000  0.75000000  0.00000000
   0.06250000  0.81250000  0.06250000
   0.00000000  0.75000000  0.25000000
   0.06250000  0.81250000  0.31250000
   0.25000000  0.50000000  0.00000000
   0.31250000  0.56250000  0.06250000
   0.25000000  0.50000000  0.25000000
   0.31250000  0.56250000  0.31250000
   0.25000000  0.75000000  0.00000000
   0.31250000  0.81250000  0.06250000
   0.25000000  0.75000000  0.25000000
   0.31250000  0.81250000  0.31250000
   0.00000000  0.50000000  0.50000000
   0.06250000  0.56250000  0.56250000
   0.00000000  0.50000000  0.75000000
   0.06250000  0.56250000  0.81250000
   0.00000000  0.75000000  0.50000000
   0.06250000  0.81250000  0.56250000
   0.00000000  0.75000000  0.75000000
   0.06250000  0.81250000  0.81250000
   0.25000000  0.50000000  0.50000000
   0.31250000  0.56250000  0.56250000
   0.25000000  0.50000000  0.75000000
   0.31250000  0.56250000  0.81250000
   0.25000000  0.75000000  0.50000000
   0.31250000  0.81250000  0.56250000
   0.25000000  0.75000000  0.75000000
   0.31250000  0.81250000  0.81250000
   0.50000000  0.00000000  0.00000000
   0.56250000  0.06250000  0.06250000
   0.50000000  0.00000000  0.25000000
   0.56250000  0.06250000  0.31250000
   0.50000000  0.25000000  0.00000000
   0.56250000  0.31250000  0.06250000
   0.50000000  0.25000000  0.25000000
   0.56250000  0.31250000  0.31250000
   0.75000000  0.00000000  0.00000000
   0.81250000  0.06250000  0.06250000
   0.75000000  0.00000000  0.25000000
   0.81250000  0.06250000  0.31250000
   0.75000000  0.25000000  0.00000000
   0.81250000  0.31250000  0.06250000
   0.75000000  0.25000000  0.25000000
   0.81250000  0.31250000  0.31250000
   0.50000000  0.00000000  0.50000000
   0.56250000  0.06250000  0.56250000
   0.50000000  0.00000000  0.75000000
   0.56250000  0.06250000  0.81250000
   0.50000000  0.25000000  0.50000000
   0.56250000  0.31250000  0.56250000
   0.50000000  0.25000000  0.75000000
   0.56250000  0.31250000  0.81250000
   0.75000000  0.00000000  0.50000000
   0.81250000  0.06250000  0.56250000
   0.75000000  0.00000000  0.75000000
   0.81250000  0.06250000  0.81250000
   0.75000000  0.25000000  0.50000000
   0.81250000  0.31250000  0.56250000
   0.75000000  0.25000000  0.75000000
   0.81250000  0.31250000  0.81250000
   0.50000000  0.50000000  0.00000000
   0.56250000  0.56250000  0.06250000
   0.50000000  0.50000000  0.25000000
   0.56250000  0.56250000  0.31250000
   0.50000000  0.75000000  0.00000000
   0.56250000  0.81250000  0.06250000
   0.50000000  0.75000000  0.25000000
   0.56250000  0.81250000  0.31250000
   0.75000000  0.50000000  0.00000000
   0.81250000  0.56250000  0.06250000
   0.75000000  0.50000000  0.25000000
   0.81250000  0.56250000  0.31250000
   0.75000000  0.75000000  0.00000000
   0.81250000  0.81250000  0.06250000
   0.75000000  0.75000000  0.25000000
   0.81250000  0.81250000  0.31250000
   0.50000000  0.50000000  0.50000000
   0.56250000  0.56250000  0.56250000
   0.50000000  0.50000000  0.75000000
   0.56250000  0.56250000  0.81250000
   0.50000000  0.75000000  0.50000000
   0.56250000  0.81250000  0.56250000
   0.50000000  0.75000000  0.75000000
   0.56250000  0.81250000  0.81250000
   0.75000000  0.50000000  0.50000000
   0.81250000  0.56250000  0.56250000
   0.75000000  0.50000000  0.75000000
   0.81250000  0.56250000  0.81250000
   0.75000000  0.75000000  0.50000000
   0.81250000  0.81250000  0.56250000
   0.75000000  0.75000000  0.75000000
   0.81250000  0.81250000  0.81250000
 
 position of ions in cartesian coordinates  (Angst):
   0.00000000  0.00000000  0.00000000
   0.89177523  0.89177523  0.89177523
   1.78355045  0.00000000  1.78355045
   2.67532568  0.89177523  2.67532568
   0.00000000  1.78355045  1.78355045
   0.89177523  2.67532568  2.67532568
   1.78355045  1.78355045  3.56710090
   2.67532568  2.67532568  4.45887613
   1.78355045  1.78355045  0.00000000
   2.67532568  2.67532568  0.89177523
   3.56710090  1.78355045  1.78355045
   4.45887613  2.67532568  2.67532568
   1.78355045  3.56710090  1.78355045
   2.67532568  4.45887613  2.67532568
   3.56710090  3.56710090  3.56710090
   4.45887613  4.45887613  4.45887613
   3.56710090  0.00000000  3.56710090
   4.45887613  0.89177523  4.45887613
   5.35065135  0.00000000  5.35065135
   6.24242658  0.89177523  6.24242658
   3.56710090  1.78355045  5.35065135
   4.45887613  2.67532568  6.24242658
   5.35065135  1.78355045  7.13420181
   6.24242658  2.67532568  8.02597703
   5.35065135  1.78355045  3.56710090
   6.24242658  2.67532568  4.45887613
   7.13420181  1.78355045  5.35065135
   8.02597703  2.67532568  6.24242658
   5.35065135  3.56710090  5.35065135
   6.24242658  4.45887613  6.24242658
   7.13420181  3.56710090  7.13420181
   8.02597703  4.45887613  8.02597703
   0.00000000  3.56710090  3.56710090
   0.89177523  4.45887613  4.45887613
   1.78355045  3.56710090  5.35065135
   2.67532568  4.45887613  6.24242658
   0.00000000  5.35065135  5.35065135
   0.89177523  6.24242658  6.24242658
   1.78355045  5.35065135  7.13420181
   2.67532568  6.24242658  8.02597703
   1.78355045  5.35065135  3.56710090
   2.67532568  6.24242658  4.45887613
   3.56710090  5.35065135  5.35065135
   4.45887613  6.24242658  6.24242658
   1.78355045  7.13420181  5.35065135
   2.67532568  8.02597703  6.24242658
   3.56710090  7.13420181  7.13420181
   4.45887613  8.02597703  8.02597703
   3.56710090  3.56710090  7.13420181
   4.45887613  4.45887613  8.02597703
   5.35065135  3.56710090  8.91775226
   6.24242658  4.45887613  9.80952748
   3.56710090  5.35065135  8.91775226
   4.45887613  6.24242658  9.80952748
   5.35065135  5.35065135 10.70130271
   6.24242658  6.24242658 11.59307794
   5.35065135  5.35065135  7.13420181
   6.24242658  6.24242658  8.02597703
   7.13420181  5.35065135  8.91775226
   8.02597703  6.24242658  9.80952748
   5.35065135  7.13420181  8.91775226
   6.24242658  8.02597703  9.80952748
   7.13420181  7.13420181 10.70130271
   8.02597703  8.02597703 11.59307794
   3.56710090  3.56710090  0.00000000
   4.45887613  4.45887613  0.89177523
   5.35065135  3.56710090  1.78355045
   6.24242658  4.45887613  2.67532568
   3.56710090  5.35065135  1.78355045
   4.45887613  6.24242658  2.67532568
   5.35065135  5.35065135  3.56710090
   6.24242658  6.24242658  4.45887613
   5.35065135  5.35065135  0.00000000
   6.24242658  6.24242658  0.89177523
   7.13420181  5.35065135  1.78355045
   8.02597703  6.24242658  2.67532568
   5.35065135  7.13420181  1.78355045
   6.24242658  8.02597703  2.67532568
   7.13420181  7.13420181  3.56710090
   8.02597703  8.02597703  4.45887613
   7.13420181  3.56710090  3.56710090
   8.02597703  4.45887613  4.45887613
   8.91775226  3.56710090  5.35065135
   9.80952748  4.45887613  6.24242658
   7.13420181  5.35065135  5.35065135
   8.02597703  6.24242658  6.24242658
   8.91775226  5.35065135  7.13420181
   9.80952748  6.24242658  8.02597703
   8.91775226  5.35065135  3.56710090
   9.80952748  6.24242658  4.45887613
  10.70130271  5.35065135  5.35065135
  11.59307794  6.24242658  6.24242658
   8.91775226  7.13420181  5.35065135
   9.80952748  8.02597703  6.24242658
  10.70130271  7.13420181  7.13420181
  11.59307794  8.02597703  8.02597703
   3.56710090  7.13420181  3.56710090
   4.45887613  8.02597703  4.45887613
   5.35065135  7.13420181  5.35065135
   6.24242658  8.02597703  6.24242658
   3.56710090  8.91775226  5.35065135
   4.45887613  9.80952748  6.24242658
   5.35065135  8.91775226  7.13420181
   6.24242658  9.80952748  8.02597703
   5.35065135  8.91775226  3.56710090
   6.24242658  9.80952748  4.45887613
   7.13420181  8.91775226  5.35065135
   8.02597703  9.80952748  6.24242658
   5.35065135 10.70130271  5.35065135
   6.24242658 11.59307794  6.24242658
   7.13420181 10.70130271  7.13420181
   8.02597703 11.59307794  8.02597703
   7.13420181  7.13420181  7.13420181
   8.02597703  8.02597703  8.02597703
   8.91775226  7.13420181  8.91775226
   9.80952748  8.02597703  9.80952748
   7.13420181  8.91775226  8.91775226
   8.02597703  9.80952748  9.80952748
   8.91775226  8.91775226 10.70130271
   9.80952748  9.80952748 11.59307794
   8.91775226  8.91775226  7.13420181
   9.80952748  9.80952748  8.02597703
  10.70130271  8.91775226  8.91775226
  11.59307794  9.80952748  9.80952748
   8.91775226 10.70130271  8.91775226
   9.80952748 11.59307794  9.80952748
  10.70130271 10.70130271 10.70130271
  11.59307794 11.59307794 11.59307794
 


--------------------------------------------------------------------------------------------------------


 use seriel FFT for wavefunctions x direction half grid
 k-point  1 :   0.0000 0.0000 0.0000  plane waves:    6662

 maximum and minimum number of plane-waves per node :      6662     6662

 maximum number of plane-waves:      6662
 maximum index in each direction: 
   IXMAX=   16   IYMAX=   16   IZMAX=   16
   IXMIN=    0   IYMIN=  -13   IZMIN=  -13

 WARNING: aliasing errors must be expected set NGX to  66 to avoid them
 WARNING: aliasing errors must be expected set NGY to  60 to avoid them
 WARNING: aliasing errors must be expected set NGZ to  60 to avoid them
 aliasing errors are usually negligible using standard VASP settings
 and one can safely disregard these warnings

 serial   3D FFT for wavefunctions
 parallel 3D FFT for charge:
    minimum data exchange during FFTs selected (reduces bandwidth)


 total amount of memory used by VASP on root node    69752. kBytes
========================================================================

   base      :      30000. kBytes
   nonl-proj :      14678. kBytes
   fftplans  :       2864. kBytes
   grid      :      15198. kBytes
   one-center:       2217. kBytes
   wavefun   :       4795. kBytes
 
     INWAV:  cpu time    0.0000: real time    0.0001
 Broyden mixing: mesh for mixing (old mesh)
   NGX = 33   NGY = 33   NGZ = 33
  (NGX  =100   NGY  =100   NGZ  =100)
  gives a total of  35937 points

 initial charge density was supplied:
 charge density of overlapping atoms calculated
 number of electron     512.0000000 magnetization     128.0000000
 keeping initial charge density in first step


--------------------------------------------------------------------------------------------------------


 Maximum index for augmentation-charges          265 (set IRDMAX)


--------------------------------------------------------------------------------------------------------


 First call to EWALD:  gamma=   0.197
 Maximum number of real-space cells 3x 3x 3
 Maximum number of reciprocal cells 3x 3x 3

 FEWALD executed in parallel
    FEWALD:  cpu time    0.0080: real time    0.0082


----------------------------------------- Iteration    1(   1)  ---------------------------------------


    POTLOK:  cpu time    0.0880: real time    0.0915
    SETDIJ:  cpu time    0.0520: real time    0.0498
     EDDAV:  cpu time    3.4882: real time    3.4977
       DOS:  cpu time    0.0000: real time    0.0004
    --------------------------------------------
      LOOP:  cpu time    3.6282: real time    3.6406

 eigenvalue-minimisations  :  1216
 total energy-change (2. order) : 0.4531957E+04  (-0.2613334E+05)
 number of electron     512.0000000 magnetization     128.0000000
 augmentation part      512.0000000 magnetization     128.0000000

 Free energy of the ion-electron system (eV)
  ---------------------------------------------------
  alpha Z        PSCENC =       344.87073686
  Ewald energy   TEWEN  =    -22267.49965048
  -Hartree energ DENC   =     -1127.02078814
  -exchange      EXHF   =         0.00000000
  -V(xc)+E(xc)   XCENC  =      1003.70818135
  PAW double counting   =     14645.43131247   -13946.15675824
  entropy T*S    EENTRO =        -0.00725793
  eigenvalues    EBANDS =      7046.34647111
  atomic energy  EATOM  =     18832.28465556
  Solvation  Ediel_sol  =         0.00000000
  ---------------------------------------------------
  free energy    TOTEN  =      4531.95690258 eV

  energy without entropy =     4531.96416051  energy(sigma->0) =     4531.95932189


--------------------------------------------------------------------------------------------------------




----------------------------------------- Iteration    1(   2)  ---------------------------------------


     EDDAV:  cpu time    4.7443: real time    4.7592
       DOS:  cpu time    0.0000: real time    0.0003
    --------------------------------------------
      LOOP:  cpu time    4.7443: real time    4.7609

 eigenvalue-minimisations  :  1792
 total energy-change (2. order) :-0.5257309E+04  (-0.5032148E+04)
 number of electron     512.0000000 magnetization     128.0000000
 augmentation part      512.0000000 magnetization     128.0000000

 Free energy of the ion-electron system (eV)
  ---------------------------------------------------
  alpha Z        PSCENC =       344.87073686
  Ewald energy   TEWEN  =    -22267.49965048
  -Hartree energ DENC   =     -1127.02078814
  -exchange      EXHF   =         0.00000000
  -V(xc)+E(xc)   XCENC  =      1003.70818135
  PAW double counting   =     14645.43131247   -13946.15675824
  entropy T*S    EENTRO =         0.00584010
  eigenvalues    EBANDS =      1789.02419032
  atomic energy  EATOM  =     18832.28465556
  Solvation  Ediel_sol  =         0.00000000
  ---------------------------------------------------
  free energy    TOTEN  =      -725.35228019 eV

  energy without entropy =     -725.35812029  energy(sigma->0) =     -725.35422689


--------------------------------------------------------------------------------------------------------




----------------------------------------- Iteration    1(   3)  ---------------------------------------


     EDDAV:  cpu time    4.0483: real time    4.0563
       DOS:  cpu time    0.0000: real time    0.0003
    --------------------------------------------
      LOOP:  cpu time    4.0483: real time    4.0582

 eigenvalue-minimisations  :  1472
 total energy-change (2. order) :-0.4004616E+03  (-0.3961629E+03)
 number of electron     512.0000000 magnetization     128.0000000
 augmentation part      512.0000000 magnetization     128.0000000

 Free energy of the ion-electron system (eV)
  ---------------------------------------------------
  alpha Z        PSCENC =       344.87073686
  Ewald energy   TEWEN  =    -22267.49965048
  -Hartree energ DENC   =     -1127.02078814
  -exchange      EXHF   =         0.00000000
  -V(xc)+E(xc)   XCENC  =      1003.70818135
  PAW double counting   =     14645.43131247   -13946.15675824
  entropy T*S    EENTRO =         0.01818190
  eigenvalues    EBANDS =      1388.55026846
  atomic energy  EATOM  =     18832.28465556
  Solvation  Ediel_sol  =         0.00000000
  ---------------------------------------------------
  free energy    TOTEN  =     -1125.81386025 eV

  energy without entropy =    -1125.83204214  energy(sigma->0) =    -1125.81992088


--------------------------------------------------------------------------------------------------------




----------------------------------------- Iteration    1(   4)  ---------------------------------------


     EDDAV:  cpu time    4.2523: real time    4.2650
       DOS:  cpu time    0.0000: real time    0.0003
    --------------------------------------------
      LOOP:  cpu time    4.2523: real time    4.2668

 eigenvalue-minimisations  :  1568
 total energy-change (2. order) :-0.1298408E+02  (-0.1293280E+02)
 number of electron     512.0000000 magnetization     128.0000000
 augmentation part      512.0000000 magnetization     128.0000000

 Free energy of the ion-electron system (eV)
  ---------------------------------------------------
  alpha Z        PSCENC =       344.87073686
  Ewald energy   TEWEN  =    -22267.49965048
  -Hartree energ DENC   =     -1127.02078814
  -exchange      EXHF   =         0.00000000
  -V(xc)+E(xc)   XCENC  =      1003.70818135
  PAW double counting   =     14645.43131247   -13946.15675824
  entropy T*S    EENTRO =         0.01739755
  eigenvalues    EBANDS =      1375.56697417
  atomic energy  EATOM  =     18832.28465556
  Solvation  Ediel_sol  =         0.00000000
  ---------------------------------------------------
  free energy    TOTEN  =     -1138.79793888 eV

  energy without entropy =    -1138.81533643  energy(sigma->0) =    -1138.80373806


--------------------------------------------------------------------------------------------------------




----------------------------------------- Iteration    1(   5)  ---------------------------------------


     EDDAV:  cpu time    4.0123: real time    4.0207
       DOS:  cpu time    0.0000: real time    0.0003
    CHARGE:  cpu time    0.6560: real time    0.6580
    MIXING:  cpu time    0.0000: real time    0.0022
    --------------------------------------------
      LOOP:  cpu time    4.6683: real time    4.6827

 eigenvalue-minimisations  :  1456
 total energy-change (2. order) :-0.3145022E+00  (-0.3134323E+00)
 number of electron     511.9999589 magnetization      52.6775219
 augmentation part        7.9743033 magnetization      52.5167848

 Broyden mixing:
  rms(total) = 0.69890E+01    rms(broyden)= 0.69884E+01
  rms(prec ) = 0.78531E+01
  weight for this iteration     100.00

 Free energy of the ion-electron system (eV)
  ---------------------------------------------------
  alpha Z        PSCENC =       344.87073686
  Ewald energy   TEWEN  =    -22267.49965048
  -Hartree energ DENC   =     -1127.02078814
  -exchange      EXHF   =         0.00000000
  -V(xc)+E(xc)   XCENC  =      1003.70818135
  PAW double counting   =     14645.43131247   -13946.15675824
  entropy T*S    EENTRO =         0.01739373
  eigenvalues    EBANDS =      1375.25247578
  atomic energy  EATOM  =     18832.28465556
  Solvation  Ediel_sol  =         0.00000000
  ---------------------------------------------------
  free energy    TOTEN  =     -1139.11244110 eV

  energy without entropy =    -1139.12983482  energy(sigma->0) =    -1139.11823901


--------------------------------------------------------------------------------------------------------




----------------------------------------- Iteration    1(   6)  ---------------------------------------


    POTLOK:  cpu time    0.0880: real time    0.0873
    SETDIJ:  cpu time    0.0520: real time    0.0500
     EDDAV:  cpu time    3.7522: real time    3.7651
       DOS:  cpu time    0.0000: real time    0.0003
    CHARGE:  cpu time    0.6400: real time    0.6412
    MIXING:  cpu time    0.0040: real time    0.0025
    --------------------------------------------
      LOOP:  cpu time    4.5363: real time    4.5480

 eigenvalue-minimisations  :  1344
 total energy-change (2. order) :-0.2390032E+01  (-0.5012368E+01)
 number of electron     511.9999591 magnetization      10.1401465
 augmentation part        7.4494510 magnetization       9.8410587

 Broyden mixing:
  rms(total) = 0.32716E+01    rms(broyden)= 0.32716E+01
  rms(prec ) = 0.38256E+01
  weight for this iteration     100.00

 eigenvalues of (default mixing * dielectric matrix)
  average eigenvalue GAMMA=   1.0160
  1.0160

 Free energy of the ion-electron system (eV)
  ---------------------------------------------------
  alpha Z        PSCENC =       344.87073686
  Ewald energy   TEWEN  =    -22267.49965048
  -Hartree energ DENC   =     -1373.79259922
  -exchange      EXHF   =         0.00000000
  -V(xc)+E(xc)   XCENC  =      1012.52697638
  PAW double counting   =     26773.87289397   -26083.45020323
  entropy T*S    EENTRO =         0.02488973
  eigenvalues    EBANDS =      1619.65982715
  atomic energy  EATOM  =     18832.28465556
  Solvation  Ediel_sol  =         0.00000000
  ---------------------------------------------------
  free energy    TOTEN  =     -1141.50247329 eV

  energy without entropy =    -1141.52736302  energy(sigma->0) =    -1141.51076987


--------------------------------------------------------------------------------------------------------




----------------------------------------- Iteration    1(   7)  ---------------------------------------


    POTLOK:  cpu time    0.0880: real time    0.0869
    SETDIJ:  cpu time    0.0480: real time    0.0500
     EDDAV:  cpu time    3.7162: real time    3.7273
       DOS:  cpu time    0.0040: real time    0.0004
    CHARGE:  cpu time    0.6480: real time    0.6520
    MIXING:  cpu time    0.0040: real time    0.0027
    --------------------------------------------
      LOOP:  cpu time    4.5083: real time    4.5208

 eigenvalue-minimisations  :  1328
 total energy-change (2. order) :-0.9860704E+01  (-0.4625734E+01)
 number of electron     511.9999594 magnetization      -4.3044121
 augmentation part        7.0669638 magnetization      -4.4615112

 Broyden mixing:
  rms(total) = 0.11929E+01    rms(broyden)= 0.11929E+01
  rms(prec ) = 0.13974E+01
  weight for this iteration     100.00

 eigenvalues of (default mixing * dielectric matrix)
  average eigenvalue GAMMA=   1.3270
  0.8069  1.8471

 Free energy of the ion-electron system (eV)
  ---------------------------------------------------
  alpha Z        PSCENC =       344.87073686
  Ewald energy   TEWEN  =    -22267.49965048
  -Hartree energ DENC   =     -1577.20315371
  -exchange      EXHF   =         0.00000000
  -V(xc)+E(xc)   XCENC  =      1023.45456847
  PAW double counting   =     39510.55901084   -38826.26523205
  entropy T*S    EENTRO =         0.03650002
  eigenvalues    EBANDS =      1808.39938744
  atomic energy  EATOM  =     18832.28465556
  Solvation  Ediel_sol  =         0.00000000
  ---------------------------------------------------
  free energy    TOTEN  =     -1151.36317704 eV

  energy without entropy =    -1151.39967706  energy(sigma->0) =    -1151.37534371


--------------------------------------------------------------------------------------------------------




----------------------------------------- Iteration    1(   8)  ---------------------------------------


    POTLOK:  cpu time    0.0880: real time    0.0868
    SETDIJ:  cpu time    0.0480: real time    0.0501
     EDDAV:  cpu time    3.9962: real time    4.0061
       DOS:  cpu time    0.0000: real time    0.0004
    CHARGE:  cpu time    0.6680: real time    0.6681
    MIXING:  cpu time    0.0000: real time    0.0029
    --------------------------------------------
      LOOP:  cpu time    4.8003: real time    4.8166

 eigenvalue-minimisations  :  1456
 total energy-change (2. order) : 0.6284878E+00  (-0.3525946E+00)
 number of electron     511.9999594 magnetization      -1.2456202
 augmentation part        6.9056403 magnetization      -1.1761032

 Broyden mixing:
  rms(total) = 0.36575E+00    rms(broyden)= 0.36574E+00
  rms(prec ) = 0.40369E+00
  weight for this iteration     100.00

 eigenvalues of (default mixing * dielectric matrix)
  average eigenvalue GAMMA=   1.2737
  1.9607  1.0709  0.7894

 Free energy of the ion-electron system (eV)
  ---------------------------------------------------
  alpha Z        PSCENC =       344.87073686
  Ewald energy   TEWEN  =    -22267.49965048
  -Hartree energ DENC   =     -1679.54378682
  -exchange      EXHF   =         0.00000000
  -V(xc)+E(xc)   XCENC  =      1033.38124120
  PAW double counting   =     47651.19385200   -46970.31622837
  entropy T*S    EENTRO =         0.03490780
  eigenvalues    EBANDS =      1904.85958297
  atomic energy  EATOM  =     18832.28465556
  Solvation  Ediel_sol  =         0.00000000
  ---------------------------------------------------
  free energy    TOTEN  =     -1150.73468927 eV

  energy without entropy =    -1150.76959707  energy(sigma->0) =    -1150.74632520


--------------------------------------------------------------------------------------------------------




----------------------------------------- Iteration    1(   9)  ---------------------------------------


    POTLOK:  cpu time    0.0880: real time    0.0868
    SETDIJ:  cpu time    0.0480: real time    0.0499
     EDDAV:  cpu time    3.7202: real time    3.7272
       DOS:  cpu time    0.0000: real time    0.0003
    CHARGE:  cpu time    0.6680: real time    0.6687
    MIXING:  cpu time    0.0000: real time    0.0032
    --------------------------------------------
      LOOP:  cpu time    4.5243: real time    4.5376

 eigenvalue-minimisations  :  1328
 total energy-change (2. order) :-0.1861767E+00  (-0.2793224E-01)
 number of electron     511.9999594 magnetization       0.0846339
 augmentation part        6.9032985 magnetization       0.1686124

 Broyden mixing:
  rms(total) = 0.15704E+00    rms(broyden)= 0.15704E+00
  rms(prec ) = 0.16820E+00
  weight for this iteration     100.00

 eigenvalues of (default mixing * dielectric matrix)
  average eigenvalue GAMMA=   1.4035
  2.3908  1.6841  0.8439  0.6951

 Free energy of the ion-electron system (eV)
  ---------------------------------------------------
  alpha Z        PSCENC =       344.87073686
  Ewald energy   TEWEN  =    -22267.49965048
  -Hartree energ DENC   =     -1695.95385479
  -exchange      EXHF   =         0.00000000
  -V(xc)+E(xc)   XCENC  =      1035.60056782
  PAW double counting   =     50213.81946030   -49533.55741241
  entropy T*S    EENTRO =         0.03548590
  eigenvalues    EBANDS =      1919.47914524
  atomic energy  EATOM  =     18832.28465556
  Solvation  Ediel_sol  =         0.00000000
  ---------------------------------------------------
  free energy    TOTEN  =     -1150.92086600 eV

  energy without entropy =    -1150.95635190  energy(sigma->0) =    -1150.93269463


--------------------------------------------------------------------------------------------------------




----------------------------------------- Iteration    1(  10)  ---------------------------------------


    POTLOK:  cpu time    0.0880: real time    0.0867
    SETDIJ:  cpu time    0.0520: real time    0.0500
     EDDAV:  cpu time    3.9242: real time    3.9362
       DOS:  cpu time    0.0000: real time    0.0003
    CHARGE:  cpu time    0.6680: real time    0.6690
    MIXING:  cpu time    0.0040: real time    0.0034
    --------------------------------------------
      LOOP:  cpu time    4.7363: real time    4.7473

 eigenvalue-minimisations  :  1424
 total energy-change (2. order) : 0.3907256E-01  (-0.2611294E-02)
 number of electron     511.9999595 magnetization       0.1662873
 augmentation part        6.9017324 magnetization       0.1572471

 Broyden mixing:
  rms(total) = 0.38066E-01    rms(broyden)= 0.38065E-01
  rms(prec ) = 0.42401E-01
  weight for this iteration     100.00

 eigenvalues of (default mixing * dielectric matrix)
  average eigenvalue GAMMA=   1.3203
  2.5157  1.7509  0.8393  0.8393  0.6562

 Free energy of the ion-electron system (eV)
  ---------------------------------------------------
  alpha Z        PSCENC =       344.87073686
  Ewald energy   TEWEN  =    -22267.49965048
  -Hartree energ DENC   =     -1701.47612699
  -exchange      EXHF   =         0.00000000
  -V(xc)+E(xc)   XCENC  =      1036.48985841
  PAW double counting   =     51317.99141803   -50638.11728511
  entropy T*S    EENTRO =         0.03480658
  eigenvalues    EBANDS =      1924.53979368
  atomic energy  EATOM  =     18832.28465556
  Solvation  Ediel_sol  =         0.00000000
  ---------------------------------------------------
  free energy    TOTEN  =     -1150.88179344 eV

  energy without entropy =    -1150.91660002  energy(sigma->0) =    -1150.89339563


--------------------------------------------------------------------------------------------------------




----------------------------------------- Iteration    1(  11)  ---------------------------------------


    POTLOK:  cpu time    0.0840: real time    0.0867
    SETDIJ:  cpu time    0.0520: real time    0.0501
     EDDAV:  cpu time    3.8922: real time    3.9024
       DOS:  cpu time    0.0000: real time    0.0003
    CHARGE:  cpu time    0.6680: real time    0.6690
    MIXING:  cpu time    0.0040: real time    0.0036
    --------------------------------------------
      LOOP:  cpu time    4.7003: real time    4.7138

 eigenvalue-minimisations  :  1408
 total energy-change (2. order) : 0.4694010E-02  (-0.3584160E-03)
 number of electron     511.9999595 magnetization       0.0434742
 augmentation part        6.9032527 magnetization       0.0414115

 Broyden mixing:
  rms(total) = 0.17376E-01    rms(broyden)= 0.17375E-01
  rms(prec ) = 0.19477E-01
  weight for this iteration     100.00

 eigenvalues of (default mixing * dielectric matrix)
  average eigenvalue GAMMA=   1.3842
  2.5452  1.9398  1.5842  0.8354  0.7626  0.6383

 Free energy of the ion-electron system (eV)
  ---------------------------------------------------
  alpha Z        PSCENC =       344.87073686
  Ewald energy   TEWEN  =    -22267.49965048
  -Hartree energ DENC   =     -1701.18951030
  -exchange      EXHF   =         0.00000000
  -V(xc)+E(xc)   XCENC  =      1036.54766150
  PAW double counting   =     51423.26069902   -50743.39405939
  entropy T*S    EENTRO =         0.03478752
  eigenvalues    EBANDS =      1924.20758027
  atomic energy  EATOM  =     18832.28465556
  Solvation  Ediel_sol  =         0.00000000
  ---------------------------------------------------
  free energy    TOTEN  =     -1150.87709943 eV

  energy without entropy =    -1150.91188695  energy(sigma->0) =    -1150.88869527


--------------------------------------------------------------------------------------------------------




----------------------------------------- Iteration    1(  12)  ---------------------------------------


    POTLOK:  cpu time    0.0840: real time    0.0866
    SETDIJ:  cpu time    0.0520: real time    0.0501
     EDDAV:  cpu time    3.4762: real time    3.4873
       DOS:  cpu time    0.0000: real time    0.0003
    CHARGE:  cpu time    0.6680: real time    0.6693
    MIXING:  cpu time    0.0040: real time    0.0038
    --------------------------------------------
      LOOP:  cpu time    4.2843: real time    4.2992

 eigenvalue-minimisations  :  1216
 total energy-change (2. order) : 0.7580025E-04  (-0.1348703E-03)
 number of electron     511.9999595 magnetization       0.0049398
 augmentation part        6.9054822 magnetization       0.0024576

 Broyden mixing:
  rms(total) = 0.47176E-02    rms(broyden)= 0.47175E-02
  rms(prec ) = 0.51852E-02
  weight for this iteration     100.00

 eigenvalues of (default mixing * dielectric matrix)
  average eigenvalue GAMMA=   1.3351
  2.5583  2.1458  1.6894  0.8459  0.8048  0.6853  0.6163

 Free energy of the ion-electron system (eV)
  ---------------------------------------------------
  alpha Z        PSCENC =       344.87073686
  Ewald energy   TEWEN  =    -22267.49965048
  -Hartree energ DENC   =     -1700.66792290
  -exchange      EXHF   =         0.00000000
  -V(xc)+E(xc)   XCENC  =      1036.54366924
  PAW double counting   =     51428.35240714   -50748.46327719
  entropy T*S    EENTRO =         0.03478799
  eigenvalues    EBANDS =      1923.66757015
  atomic energy  EATOM  =     18832.28465556
  Solvation  Ediel_sol  =         0.00000000
  ---------------------------------------------------
  free energy    TOTEN  =     -1150.87702363 eV

  energy without entropy =    -1150.91181162  energy(sigma->0) =    -1150.88861962


--------------------------------------------------------------------------------------------------------




----------------------------------------- Iteration    1(  13)  ---------------------------------------


    POTLOK:  cpu time    0.0880: real time    0.0866
    SETDIJ:  cpu time    0.0480: real time    0.0501
     EDDAV:  cpu time    2.7602: real time    2.7654
       DOS:  cpu time    0.0000: real time    0.0003
    --------------------------------------------
      LOOP:  cpu time    2.8962: real time    2.9041

 eigenvalue-minimisations  :   880
 total energy-change (2. order) :-0.1677170E-04  (-0.4982563E-05)
 number of electron     511.9999595 magnetization       0.0049398
 augmentation part        6.9054822 magnetization       0.0024576

 Free energy of the ion-electron system (eV)
  ---------------------------------------------------
  alpha Z        PSCENC =       344.87073686
  Ewald energy   TEWEN  =    -22267.49965048
  -Hartree energ DENC   =     -1700.66091745
  -exchange      EXHF   =         0.00000000
  -V(xc)+E(xc)   XCENC  =      1036.54496171
  PAW double counting   =     51418.17561431   -50738.28011258
  entropy T*S    EENTRO =         0.03478744
  eigenvalues    EBANDS =      1923.65288422
  atomic energy  EATOM  =     18832.28465556
  Solvation  Ediel_sol  =         0.00000000
  ---------------------------------------------------
  free energy    TOTEN  =     -1150.87704040 eV

  energy without entropy =    -1150.91182784  energy(sigma->0) =    -1150.88863621


--------------------------------------------------------------------------------------------------------




 average (electrostatic) potential at core
  the test charge radii are     0.6557
  (the norm of the test charge is              1.0000)
       1-107.5474       2-107.5475       3-107.5474       4-107.5475       5-107.5474
       6-107.5475       7-107.5474       8-107.5475       9-107.5474      10-107.5475
      11-107.5474      12-107.5475      13-107.5474      14-107.5475      15-107.5474
      16-107.5475      17-107.5474      18-107.5475      19-107.5474      20-107.5475
      21-107.5474      22-107.5475      23-107.5474      24-107.5475      25-107.5474
      26-107.5475      27-107.5474      28-107.5475      29-107.5474      30-107.5475
      31-107.5474      32-107.5475      33-107.5474      34-107.5475      35-107.5474
      36-107.5475      37-107.5474      38-107.5475      39-107.5474      40-107.5475
      41-107.5474      42-107.5475      43-107.5474      44-107.5475      45-107.5474
      46-107.5475      47-107.5474      48-107.5475      49-107.5474      50-107.5475
      51-107.5474      52-107.5475      53-107.5474      54-107.5475      55-107.5474
      56-107.5475      57-107.5474      58-107.5475      59-107.5474      60-107.5475
      61-107.5474      62-107.5475      63-107.5474      64-107.5475      65-107.5474
      66-107.5475      67-107.5474      68-107.5475      69-107.5474      70-107.5475
      71-107.5474      72-107.5475      73-107.5474      74-107.5475      75-107.5474
      76-107.5475      77-107.5474      78-107.5475      79-107.5474      80-107.5475
      81-107.5474      82-107.5475      83-107.5474      84-107.5475      85-107.5474
      86-107.5475      87-107.5474      88-107.5475      89-107.5474      90-107.5475
      91-107.5474      92-107.5475      93-107.5474      94-107.5475      95-107.5474
      96-107.5475      97-107.5474      98-107.5475      99-107.5474     100-107.5475
     101-107.5474     102-107.5475     103-107.5474     104-107.5475     105-107.5474
     106-107.5475     107-107.5474     108-107.5475     109-107.5474     110-107.5475
     111-107.5474     112-107.5475     113-107.5474     114-107.5475     115-107.5474
     116-107.5475     117-107.5474     118-107.5475     119-107.5474     120-107.5475
     121-107.5474     122-107.5475     123-107.5474     124-107.5475     125-107.5474
     126-107.5475     127-107.5474     128-107.5475
 
 
 
 E-fermi :  12.9139     XC(G=0): -13.3581     alpha+bet :-20.6475


 spin component 1

 k-point     1 :       0.0000    0.0000    0.0000
  band No.  band energies     occupation 
      1      -8.7777      1.00000
      2      -7.0615      1.00000
      3      -7.0615      1.00000
      4      -7.0615      1.00000
      5      -7.0615      1.00000
      6      -7.0615      1.00000
      7      -7.0615      1.00000
      8      -7.0615      1.00000
      9      -7.0615      1.00000
     10      -6.4910      1.00000
     11      -6.4910      1.00000
     12      -6.4910      1.00000
     13      -6.4910      1.00000
     14      -6.4910      1.00000
     15      -6.4910      1.00000
     16      -4.3093      1.00000
     17      -4.3093      1.00000
     18      -4.3093      1.00000
     19      -4.3093      1.00000
     20      -4.3093      1.00000
     21      -4.3093      1.00000
     22      -4.3092      1.00000
     23      -4.3092      1.00000
     24      -4.3092      1.00000
     25      -4.3092      1.00000
     26      -4.3092      1.00000
     27      -4.3092      1.00000
     28      -3.0022      1.00000
     29      -3.0022      1.00000
     30      -3.0022      1.00000
     31      -3.0022      1.00000
     32      -2.7540      1.00000
     33      -2.7540      1.00000
     34      -2.7540      1.00000
     35      -2.7540      1.00000
     36      -2.7540      1.00000
     37      -2.7540      1.00000
     38      -2.7540      1.00000
     39      -2.7540      1.00000
     40      -2.7540      1.00000
     41      -2.7540      1.00000
     42      -2.7540      1.00000
     43      -2.7540      1.00000
     44      -2.7540      1.00000
     45      -2.7540      1.00000
     46      -2.7540      1.00000
     47      -2.7540      1.00000
     48      -2.7540      1.00000
     49      -2.7540      1.00000
     50      -2.7540      1.00000
     51      -2.7540      1.00000
     52      -2.7540      1.00000
     53      -2.7540      1.00000
     54      -2.7540      1.00000
     55      -2.7540      1.00000
     56      -0.6699      1.00000
     57      -0.6698      1.00000
     58      -0.6698      1.00000
     59      -0.6698      1.00000
     60      -0.0599      1.00000
     61      -0.0599      1.00000
     62      -0.0599      1.00000
     63      -0.0599      1.00000
     64      -0.0599      1.00000
     65      -0.0599      1.00000
     66       0.7310      1.00000
     67       0.7310      1.00000
     68       0.7310      1.00000
     69       0.7310      1.00000
     70       0.7310      1.00000
     71       0.7310      1.00000
     72       0.7310      1.00000
     73       0.7310      1.00000
     74       0.7310      1.00000
     75       0.7310      1.00000
     76       0.7310      1.00000
     77       0.7310      1.00000
     78       1.9260      1.00000
     79       1.9260      1.00000
     80       1.9260      1.00000
     81       1.9260      1.00000
     82       1.9260      1.00000
     83       1.9260      1.00000
     84       1.9261      1.00000
     85       1.9261      1.00000
     86       1.9261      1.00000
     87       1.9261      1.00000
     88       1.9261      1.00000
     89       1.9261      1.00000
     90       1.9261      1.00000
     91       1.9261      1.00000
     92       1.9261      1.00000
     93       1.9261      1.00000
     94       1.9261      1.00000
     95       1.9261      1.00000
     96       1.9261      1.00000
     97       1.9261      1.00000
     98       1.9261      1.00000
     99       1.9261      1.00000
    100       1.9261      1.00000
    101       1.9261      1.00000
    102       4.0100      1.00000
    103       4.0100      1.00000
    104       4.0100      1.00000
    105       4.0100      1.00000
    106       4.0100      1.00000
    107       4.0100      1.00000
    108       4.0100      1.00000
    109       4.0100      1.00000
    110       4.0100      1.00000
    111       4.0100      1.00000
    112       4.0100      1.00000
    113       4.0100      1.00000
    114       4.3983      1.00000
    115       4.3983      1.00000
    116       4.3983      1.00000
    117       4.3983      1.00000
    118       4.3983      1.00000
    119       4.3983      1.00000
    120       4.3984      1.00000
    121       4.3984      1.00000
    122       4.3984      1.00000
    123       4.3984      1.00000
    124       4.3984      1.00000
    125       4.3984      1.00000
    126       5.1112      1.00000
    127       5.1112      1.00000
    128       5.1112      1.00000
    129       5.1112      1.00000
    130       5.1112      1.00000
    131       5.1112      1.00000
    132       5.1112      1.00000
    133       5.1112      1.00000
    134       5.1112      1.00000
    135       5.1112      1.00000
    136       5.1112      1.00000
    137       5.1112      1.00000
    138       5.9752      1.00000
    139       5.9753      1.00000
    140       5.9753      1.00000
    141       5.9753      1.00000
    142       5.9753      1.00000
    143       5.9753      1.00000
    144       5.9753      1.00000
    145       5.9753      1.00000
    146       5.9753      1.00000
    147       5.9753      1.00000
    148       5.9753      1.00000
    149       5.9753      1.00000
    150       5.9753      1.00000
    151       5.9753      1.00000
    152       5.9753      1.00000
    153       5.9753      1.00000
    154       5.9753      1.00000
    155       5.9753      1.00000
    156       5.9753      1.00000
    157       5.9753      1.00000
    158       5.9753      1.00000
    159       5.9754      1.00000
    160       5.9754      1.00000
    161       5.9754      1.00000
    162       6.1207      1.00000
    163       6.1207      1.00000
    164       6.1208      1.00000
    165       6.1208      1.00000
    166       6.1208      1.00000
    167       6.1208      1.00000
    168       6.1208      1.00000
    169       6.1208      1.00000
    170       6.4303      1.00000
    171       6.4303      1.00000
    172       6.4303      1.00000
    173       6.4304      1.00000
    174       6.4304      1.00000
    175       6.4304      1.00000
    176       7.8462      1.00000
    177       7.8462      1.00000
    178       7.8462      1.00000
    179       7.8462      1.00000
    180       7.8462      1.00000
    181       7.8462      1.00000
    182       7.8462      1.00000
    183       7.8462      1.00000
    184       7.8462      1.00000
    185       7.8462      1.00000
    186       7.8462      1.00000
    187       7.8462      1.00000
    188       7.8463      1.00000
    189       7.8463      1.00000
    190       7.8463      1.00000
    191       7.8463      1.00000
    192       7.8463      1.00000
    193       7.8463      1.00000
    194       7.8463      1.00000
    195       7.8463      1.00000
    196       7.8463      1.00000
    197       7.8463      1.00000
    198       7.8463      1.00000
    199       7.8463      1.00000
    200       8.1936      1.00000
    201       8.1936      1.00000
    202       8.1936      1.00000
    203       8.1936      1.00000
    204       8.1936      1.00000
    205       8.1936      1.00000
    206       8.6050      1.00000
    207       8.6050      1.00000
    208       8.6050      1.00000
    209       8.6050      1.00000
    210       8.6050      1.00000
    211       8.6050      1.00000
    212       8.6050      1.00000
    213       8.6050      1.00000
    214       8.6050      1.00000
    215       8.6050      1.00000
    216       8.6050      1.00000
    217       8.6050      1.00000
    218       9.7139      1.00000
    219       9.7139      1.00000
    220       9.7139      1.00000
    221       9.7139      1.00000
    222       9.7139      1.00000
    223       9.7139      1.00000
    224       9.7140      1.00000
    225       9.7140      1.00000
    226       9.7140      1.00000
    227       9.7140      1.00000
    228       9.7140      1.00000
    229       9.7140      1.00000
    230       9.9317      1.00000
    231       9.9317      1.00000
    232       9.9317      1.00000
    233       9.9318      1.00000
    234       9.9318      1.00000
    235       9.9318      1.00000
    236       9.9318      1.00000
    237       9.9318      1.00000
    238      10.9823      1.00000
    239      10.9823      1.00000
    240      10.9823      1.00000
    241      10.9823      1.00000
    242      10.9823      1.00000
    243      10.9823      1.00000
    244      10.9824      1.00000
    245      10.9824      1.00000
    246      10.9824      1.00000
    247      10.9824      1.00000
    248      10.9824      1.00000
    249      10.9824      1.00000
    250      10.9824      1.00000
    251      10.9824      1.00000
    252      10.9824      1.00000
    253      10.9824      1.00000
    254      12.7455      1.00004
    255      12.7456      0.99995
    256      12.7456      0.99995
    257      17.1560     -0.00000
    258      17.1560     -0.00000
    259      17.1560     -0.00000
    260      17.1560     -0.00000
[...]
   0.149E-04 0.149E-04 0.149E-04   0.137E-12 0.162E-12 -.178E-14   -.957E-19 -.343E-19 -.509E-19   0.641E-08 0.641E-08 0.641E-08
   -.183E-04 -.183E-04 -.183E-04   -.457E-13 -.260E-13 -.153E-12   0.109E-18 0.245E-19 0.370E-19   -.649E-08 -.649E-08 -.649E-08
   0.149E-04 0.149E-04 0.149E-04   0.192E-12 0.148E-12 0.631E-13   -.569E-19 -.294E-19 -.837E-19   0.641E-08 0.641E-08 0.641E-08
   -.183E-04 -.183E-04 -.183E-04   -.133E-13 -.453E-13 -.265E-12   0.116E-18 0.462E-19 0.402E-19   -.649E-08 -.649E-08 -.649E-08
   0.149E-04 0.149E-04 0.149E-04   0.657E-13 0.382E-13 0.834E-13   -.772E-19 -.363E-19 -.684E-19   0.641E-08 0.641E-08 0.641E-08
   -.183E-04 -.183E-04 -.183E-04   -.568E-13 -.158E-12 -.159E-12   0.774E-19 0.221E-19 0.562E-19   -.649E-08 -.649E-08 -.649E-08
   0.149E-04 0.149E-04 0.149E-04   0.391E-13 0.426E-13 0.156E-12   -.122E-18 -.281E-19 -.370E-19   0.641E-08 0.641E-08 0.641E-08
   -.183E-04 -.183E-04 -.183E-04   -.132E-12 -.139E-12 -.116E-12   0.106E-18 0.366E-19 0.276E-19   -.649E-08 -.649E-08 -.649E-08
   0.149E-04 0.149E-04 0.149E-04   0.110E-12 0.600E-13 0.107E-12   -.740E-19 -.180E-19 -.430E-19   0.641E-08 0.641E-08 0.641E-08
   -.183E-04 -.183E-04 -.183E-04   -.329E-13 -.104E-12 -.184E-12   0.790E-19 0.370E-19 0.454E-19   -.649E-08 -.649E-08 -.649E-08
   0.149E-04 0.149E-04 0.149E-04   0.386E-13 0.133E-14 0.675E-13   -.110E-18 -.244E-19 -.230E-19   0.641E-08 0.641E-08 0.641E-08
   -.183E-04 -.183E-04 -.183E-04   -.604E-13 0.124E-13 -.106E-12   0.119E-18 0.259E-19 0.444E-19   -.649E-08 -.649E-08 -.649E-08
   0.149E-04 0.149E-04 0.149E-04   0.853E-13 0.146E-12 0.169E-12   -.722E-19 -.413E-19 -.686E-19   0.641E-08 0.641E-08 0.641E-08
   -.183E-04 -.183E-04 -.183E-04   -.711E-13 0.426E-13 -.924E-13   0.895E-19 0.103E-19 0.499E-19   -.649E-08 -.649E-08 -.649E-08
   0.149E-04 0.149E-04 0.149E-04   0.128E-12 0.156E-12 0.320E-13   -.116E-18 -.229E-19 -.371E-19   0.641E-08 0.641E-08 0.641E-08
   -.183E-04 -.183E-04 -.183E-04   -.275E-13 -.258E-13 -.329E-13   0.110E-18 0.406E-19 0.283E-19   -.649E-08 -.649E-08 -.649E-08
   0.149E-04 0.149E-04 0.149E-04   0.122E-12 0.247E-12 0.111E-12   -.787E-19 -.238E-19 -.592E-19   0.641E-08 0.641E-08 0.641E-08
   -.183E-04 -.183E-04 -.183E-04   -.178E-14 -.302E-13 -.112E-12   0.789E-19 0.341E-19 0.432E-19   -.649E-08 -.649E-08 -.649E-08
   0.149E-04 0.149E-04 0.149E-04   -.245E-13 0.131E-12 0.684E-13   -.111E-18 -.208E-19 -.143E-19   0.641E-08 0.641E-08 0.641E-08
   -.183E-04 -.183E-04 -.183E-04   0.392E-13 -.163E-12 -.445E-13   0.927E-19 0.442E-19 0.494E-19   -.649E-08 -.649E-08 -.649E-08
   0.149E-04 0.149E-04 0.149E-04   0.137E-12 0.941E-13 0.550E-13   -.114E-18 -.241E-19 -.597E-19   0.641E-08 0.641E-08 0.641E-08
   -.183E-04 -.183E-04 -.183E-04   -.600E-13 -.870E-13 -.128E-12   0.903E-19 0.396E-19 0.502E-19   -.649E-08 -.649E-08 -.649E-08
   0.149E-04 0.149E-04 0.149E-04   0.799E-13 0.112E-12 0.844E-13   -.695E-19 -.903E-20 -.640E-19   0.641E-08 0.641E-08 0.641E-08
   -.183E-04 -.183E-04 -.183E-04   -.115E-12 0.142E-13 -.159E-12   0.763E-19 0.337E-19 0.657E-19   -.649E-08 -.649E-08 -.649E-08
   0.149E-04 0.149E-04 0.149E-04   0.381E-13 0.639E-13 0.135E-12   -.988E-19 -.338E-19 -.501E-19   0.641E-08 0.641E-08 0.641E-08
   -.183E-04 -.183E-04 -.183E-04   -.782E-13 -.435E-13 -.568E-13   0.936E-19 0.287E-19 0.641E-19   -.649E-08 -.649E-08 -.649E-08
   0.149E-04 0.149E-04 0.149E-04   0.586E-13 0.844E-13 0.129E-12   -.596E-19 -.270E-19 -.719E-19   0.641E-08 0.641E-08 0.641E-08
   -.183E-04 -.183E-04 -.183E-04   0.400E-13 -.924E-13 -.179E-12   0.903E-19 0.414E-19 0.548E-19   -.649E-08 -.649E-08 -.649E-08
   0.149E-04 0.149E-04 0.149E-04   0.174E-12 0.568E-13 0.551E-13   -.104E-18 -.396E-19 -.562E-19   0.641E-08 0.641E-08 0.641E-08
   -.183E-04 -.183E-04 -.183E-04   -.165E-12 0.000E+00 -.125E-12   0.976E-19 0.421E-19 0.459E-19   -.649E-08 -.649E-08 -.649E-08
   0.149E-04 0.149E-04 0.149E-04   0.147E-12 0.311E-13 0.118E-12   -.617E-19 -.730E-20 -.671E-19   0.641E-08 0.641E-08 0.641E-08
   -.183E-04 -.183E-04 -.183E-04   0.000E+00 -.142E-13 -.924E-13   0.891E-19 0.275E-19 0.535E-19   -.649E-08 -.649E-08 -.649E-08
   0.149E-04 0.149E-04 0.149E-04   0.146E-12 0.622E-13 0.604E-13   -.105E-18 -.307E-19 -.349E-19   0.641E-08 0.641E-08 0.641E-08
   -.183E-04 -.183E-04 -.183E-04   -.435E-13 -.302E-13 -.106E-12   0.799E-19 0.308E-19 0.751E-19   -.649E-08 -.649E-08 -.649E-08
   0.149E-04 0.149E-04 0.149E-04   0.148E-12 0.501E-13 0.853E-13   -.645E-19 -.219E-19 -.660E-19   0.641E-08 0.641E-08 0.641E-08
   -.183E-04 -.183E-04 -.183E-04   -.245E-13 0.283E-13 -.187E-12   0.112E-18 0.307E-19 0.416E-19   -.649E-08 -.649E-08 -.649E-08
   0.149E-04 0.149E-04 0.149E-04   0.791E-13 0.935E-13 0.695E-13   -.813E-19 -.101E-19 -.560E-19   0.641E-08 0.641E-08 0.641E-08
   -.183E-04 -.183E-04 -.183E-04   0.491E-14 -.652E-13 -.115E-12   0.787E-19 0.178E-19 0.571E-19   -.649E-08 -.649E-08 -.649E-08
   0.149E-04 0.149E-04 0.149E-04   0.506E-13 0.191E-12 0.608E-13   -.116E-18 -.431E-19 -.384E-19   0.641E-08 0.641E-08 0.641E-08
   -.183E-04 -.183E-04 -.183E-04   -.167E-12 -.727E-14 -.104E-12   0.109E-18 0.269E-19 0.402E-19   -.649E-08 -.649E-08 -.649E-08
   0.149E-04 0.149E-04 0.149E-04   0.120E-12 0.915E-13 0.118E-12   -.924E-19 -.364E-19 -.734E-19   0.641E-08 0.641E-08 0.641E-08
   -.183E-04 -.183E-04 -.183E-04   -.551E-13 0.444E-13 -.737E-13   0.843E-19 0.156E-19 0.501E-19   -.649E-08 -.649E-08 -.649E-08
   0.149E-04 0.149E-04 0.149E-04   0.568E-13 0.110E-12 0.220E-12   -.104E-18 -.386E-19 -.297E-19   0.641E-08 0.641E-08 0.641E-08
   -.183E-04 -.183E-04 -.183E-04   -.572E-13 -.561E-13 -.117E-12   0.119E-18 0.343E-19 0.432E-19   -.649E-08 -.649E-08 -.649E-08
   0.149E-04 0.149E-04 0.149E-04   0.103E-12 0.298E-13 0.138E-12   -.837E-19 -.108E-19 -.623E-19   0.641E-08 0.641E-08 0.641E-08
   -.183E-04 -.183E-04 -.183E-04   -.777E-13 -.417E-13 -.826E-13   0.818E-19 0.158E-19 0.599E-19   -.649E-08 -.649E-08 -.649E-08
   0.149E-04 0.149E-04 0.149E-04   0.142E-12 0.117E-12 0.746E-13   -.107E-18 -.313E-19 -.456E-19   0.641E-08 0.641E-08 0.641E-08
   -.183E-04 -.183E-04 -.183E-04   -.604E-13 -.151E-13 -.968E-13   0.114E-18 0.228E-19 0.470E-19   -.649E-08 -.649E-08 -.649E-08
   0.149E-04 0.149E-04 0.149E-04   0.117E-12 0.512E-16 0.533E-13   -.102E-18 -.432E-19 -.793E-19   0.641E-08 0.641E-08 0.641E-08
   -.183E-04 -.183E-04 -.183E-04   -.355E-13 0.426E-13 -.142E-12   0.808E-19 0.177E-19 0.410E-19   -.649E-08 -.649E-08 -.649E-08
   0.149E-04 0.149E-04 0.149E-04   -.284E-13 -.284E-13 0.142E-13   -.106E-18 -.287E-19 -.217E-19   0.641E-08 0.641E-08 0.641E-08
 -----------------------------------------------------------------------------------------------
   -.213E-03 -.213E-03 -.213E-03   0.224E-12 -.407E-12 0.108E-12   0.806E-19 0.117E-19 -.182E-19   -.551E-08 -.551E-08 -.551E-08
 
 
 POSITION                                       TOTAL-FORCE (eV/Angst)
 -----------------------------------------------------------------------------------
      0.00000      0.00000      0.00000        -0.000000     -0.000000     -0.000000
      0.89178      0.89178      0.89178         0.000000      0.000000      0.000000
      1.78355      0.00000      1.78355        -0.000000     -0.000000     -0.000000
      2.67533      0.89178      2.67533         0.000000      0.000000      0.000000
      0.00000      1.78355      1.78355        -0.000000     -0.000000     -0.000000
      0.89178      2.67533      2.67533         0.000000      0.000000      0.000000
      1.78355      1.78355      3.56710        -0.000000     -0.000000     -0.000000
      2.67533      2.67533      4.45888         0.000000      0.000000      0.000000
      1.78355      1.78355      0.00000        -0.000000     -0.000000     -0.000000
      2.67533      2.67533      0.89178         0.000000      0.000000      0.000000
      3.56710      1.78355      1.78355        -0.000000     -0.000000     -0.000000
      4.45888      2.67533      2.67533         0.000000      0.000000      0.000000
      1.78355      3.56710      1.78355        -0.000000     -0.000000     -0.000000
      2.67533      4.45888      2.67533         0.000000      0.000000      0.000000
      3.56710      3.56710      3.56710        -0.000000     -0.000000     -0.000000
      4.45888      4.45888      4.45888         0.000000      0.000000      0.000000
      3.56710      0.00000      3.56710        -0.000000     -0.000000     -0.000000
      4.45888      0.89178      4.45888         0.000000     -0.000000      0.000000
      5.35065      0.00000      5.35065        -0.000000      0.000000     -0.000000
      6.24243      0.89178      6.24243         0.000000      0.000000      0.000000
      3.56710      1.78355      5.35065        -0.000000     -0.000000     -0.000000
      4.45888      2.67533      6.24243         0.000000      0.000000      0.000000
      5.35065      1.78355      7.13420        -0.000000     -0.000000     -0.000000
      6.24243      2.67533      8.02598         0.000000     -0.000000      0.000000
      5.35065      1.78355      3.56710        -0.000000     -0.000000     -0.000000
      6.24243      2.67533      4.45888         0.000000     -0.000000      0.000000
      7.13420      1.78355      5.35065        -0.000000      0.000000     -0.000000
      8.02598      2.67533      6.24243         0.000000      0.000000      0.000000
      5.35065      3.56710      5.35065        -0.000000     -0.000000     -0.000000
      6.24243      4.45888      6.24243         0.000000      0.000000      0.000000
      7.13420      3.56710      7.13420        -0.000000      0.000000     -0.000000
      8.02598      4.45888      8.02598         0.000000      0.000000      0.000000
      0.00000      3.56710      3.56710        -0.000000     -0.000000     -0.000000
      0.89178      4.45888      4.45888         0.000000      0.000000      0.000000
      1.78355      3.56710      5.35065        -0.000000     -0.000000     -0.000000
      2.67533      4.45888      6.24243         0.000000      0.000000      0.000000
      0.00000      5.35065      5.35065        -0.000000     -0.000000     -0.000000
      0.89178      6.24243      6.24243         0.000000      0.000000      0.000000
      1.78355      5.35065      7.13420        -0.000000     -0.000000     -0.000000
      2.67533      6.24243      8.02598         0.000000      0.000000      0.000000
      1.78355      5.35065      3.56710        -0.000000     -0.000000     -0.000000
      2.67533      6.24243      4.45888         0.000000      0.000000      0.000000
      3.56710      5.35065      5.35065        -0.000000     -0.000000     -0.000000
      4.45888      6.24243      6.24243         0.000000      0.000000      0.000000
      1.78355      7.13420      5.35065        -0.000000      0.000000     -0.000000
      2.67533      8.02598      6.24243         0.000000      0.000000      0.000000
      3.56710      7.13420      7.13420        -0.000000     -0.000000     -0.000000
      4.45888      8.02598      8.02598         0.000000      0.000000      0.000000
      3.56710      3.56710      7.13420        -0.000000     -0.000000     -0.000000
      4.45888      4.45888      8.02598         0.000000     -0.000000      0.000000
      5.35065      3.56710      8.91775        -0.000000     -0.000000     -0.000000
      6.24243      4.45888      9.80953         0.000000      0.000000      0.000000
      3.56710      5.35065      8.91775        -0.000000     -0.000000     -0.000000
      4.45888      6.24243      9.80953         0.000000     -0.000000      0.000000
      5.35065      5.35065     10.70130        -0.000000      0.000000     -0.000000
      6.24243      6.24243     11.59308         0.000000     -0.000000      0.000000
      5.35065      5.35065      7.13420        -0.000000     -0.000000     -0.000000
      6.24243      6.24243      8.02598         0.000000     -0.000000      0.000000
      7.13420      5.35065      8.91775        -0.000000     -0.000000     -0.000000
      8.02598      6.24243      9.80953         0.000000      0.000000      0.000000
      5.35065      7.13420      8.91775        -0.000000     -0.000000     -0.000000
      6.24243      8.02598      9.80953         0.000000     -0.000000      0.000000
      7.13420      7.13420     10.70130        -0.000000     -0.000000     -0.000000
      8.02598      8.02598     11.59308         0.000000      0.000000      0.000000
      3.56710      3.56710      0.00000        -0.000000     -0.000000     -0.000000
      4.45888      4.45888      0.89178         0.000000      0.000000      0.000000
      5.35065      3.56710      1.78355        -0.000000     -0.000000     -0.000000
      6.24243      4.45888      2.67533         0.000000      0.000000      0.000000
      3.56710      5.35065      1.78355        -0.000000     -0.000000     -0.000000
      4.45888      6.24243      2.67533         0.000000      0.000000      0.000000
      5.35065      5.35065      3.56710        -0.000000     -0.000000     -0.000000
      6.24243      6.24243      4.45888         0.000000      0.000000      0.000000
      5.35065      5.35065      0.00000        -0.000000     -0.000000     -0.000000
      6.24243      6.24243      0.89178         0.000000      0.000000      0.000000
      7.13420      5.35065      1.78355        -0.000000     -0.000000     -0.000000
      8.02598      6.24243      2.67533         0.000000      0.000000      0.000000
      5.35065      7.13420      1.78355        -0.000000     -0.000000     -0.000000
      6.24243      8.02598      2.67533         0.000000      0.000000      0.000000
      7.13420      7.13420      3.56710        -0.000000     -0.000000     -0.000000
      8.02598      8.02598      4.45888         0.000000      0.000000      0.000000
      7.13420      3.56710      3.56710        -0.000000     -0.000000     -0.000000
      8.02598      4.45888      4.45888         0.000000      0.000000      0.000000
      8.91775      3.56710      5.35065        -0.000000      0.000000     -0.000000
      9.80953      4.45888      6.24243         0.000000      0.000000      0.000000
      7.13420      5.35065      5.35065        -0.000000     -0.000000     -0.000000
      8.02598      6.24243      6.24243         0.000000      0.000000      0.000000
      8.91775      5.35065      7.13420        -0.000000      0.000000     -0.000000
      9.80953      6.24243      8.02598         0.000000     -0.000000      0.000000
      8.91775      5.35065      3.56710        -0.000000     -0.000000     -0.000000
      9.80953      6.24243      4.45888         0.000000      0.000000      0.000000
     10.70130      5.35065      5.35065        -0.000000      0.000000     -0.000000
     11.59308      6.24243      6.24243         0.000000      0.000000      0.000000
      8.91775      7.13420      5.35065        -0.000000     -0.000000     -0.000000
      9.80953      8.02598      6.24243         0.000000      0.000000      0.000000
     10.70130      7.13420      7.13420        -0.000000     -0.000000     -0.000000
     11.59308      8.02598      8.02598         0.000000     -0.000000      0.000000
      3.56710      7.13420      3.56710        -0.000000     -0.000000     -0.000000
      4.45888      8.02598      4.45888         0.000000      0.000000      0.000000
      5.35065      7.13420      5.35065        -0.000000     -0.000000     -0.000000
      6.24243      8.02598      6.24243         0.000000      0.000000      0.000000
      3.56710      8.91775      5.35065        -0.000000      0.000000     -0.000000
      4.45888      9.80953      6.24243         0.000000      0.000000      0.000000
      5.35065      8.91775      7.13420        -0.000000     -0.000000     -0.000000
      6.24243      9.80953      8.02598         0.000000      0.000000      0.000000
      5.35065      8.91775      3.56710        -0.000000     -0.000000     -0.000000
      6.24243      9.80953      4.45888         0.000000      0.000000      0.000000
      7.13420      8.91775      5.35065        -0.000000     -0.000000     -0.000000
      8.02598      9.80953      6.24243         0.000000      0.000000      0.000000
      5.35065     10.70130      5.35065        -0.000000     -0.000000     -0.000000
      6.24243     11.59308      6.24243         0.000000      0.000000      0.000000
      7.13420     10.70130      7.13420        -0.000000     -0.000000     -0.000000
      8.02598     11.59308      8.02598         0.000000      0.000000      0.000000
      7.13420      7.13420      7.13420        -0.000000     -0.000000     -0.000000
      8.02598      8.02598      8.02598         0.000000     -0.000000      0.000000
      8.91775      7.13420      8.91775        -0.000000     -0.000000     -0.000000
      9.80953      8.02598      9.80953         0.000000      0.000000      0.000000
      7.13420      8.91775      8.91775        -0.000000     -0.000000     -0.000000
      8.02598      9.80953      9.80953         0.000000     -0.000000      0.000000
      8.91775      8.91775     10.70130        -0.000000      0.000000     -0.000000
      9.80953      9.80953     11.59308         0.000000     -0.000000      0.000000
      8.91775      8.91775      7.13420        -0.000000     -0.000000     -0.000000
      9.80953      9.80953      8.02598         0.000000     -0.000000      0.000000
     10.70130      8.91775      8.91775        -0.000000     -0.000000     -0.000000
     11.59308      9.80953      9.80953         0.000000     -0.000000      0.000000
      8.91775     10.70130      8.91775        -0.000000     -0.000000     -0.000000
      9.80953     11.59308      9.80953         0.000000     -0.000000      0.000000
     10.70130     10.70130     10.70130        -0.000000      0.000000     -0.000000
     11.59308     11.59308     11.59308         0.000000     -0.000000      0.000000
 -----------------------------------------------------------------------------------
    total drift:                               -0.000213     -0.000213     -0.000213


--------------------------------------------------------------------------------------------------------



  FREE ENERGIE OF THE ION-ELECTRON SYSTEM (eV)
  ---------------------------------------------------
  free  energy   TOTEN  =     -1150.87704040 eV

  energy  without entropy=    -1150.91182784  energy(sigma->0) =    -1150.88863621
 


--------------------------------------------------------------------------------------------------------


    POTLOK:  cpu time    0.1400: real time    0.1393


--------------------------------------------------------------------------------------------------------




--------------------------------------------------------------------------------------------------------


  
 reached required accuracy - stopping structural energy minimisation
 writing wavefunctions
     LOOP+:  cpu time   69.4923: real time   70.1715
    4ORBIT:  cpu time    0.0000: real time    0.0000

 total amount of memory used by VASP on root node    69752. kBytes
========================================================================

   base      :      30000. kBytes
   nonl-proj :      14678. kBytes
   fftplans  :       2864. kBytes
   grid      :      15198. kBytes
   one-center:       2217. kBytes
   wavefun   :       4795. kBytes
 
  
  
 General timing and accounting informations for this job:
 ========================================================
  
                  Total CPU time used (sec):       72.865
                            User time (sec):       72.273
                          System time (sec):        0.592
                         Elapsed time (sec):       73.883
  
                   Maximum memory used (kb):      114336.
                   Average memory used (kb):           0.
  
                          Minor page faults:        19115
                          Major page faults:            0
                 Voluntary context switches:          372
